4
virial="2.70982883      -0.54715454       0.76512467      -0.54715454       2.79861832      -0.06158861       0.76512467      -0.06158861       4.99900155" energy=-438.51942873488144 config_type=FLD_Al cutoff=6.00000000 nneightol=1.20000000 pbc="T T T" Lattice="4.00000000       0.00000000       0.00000000       0.00000000       4.00000000       0.00000000       0.00000000       0.00000000       3.75959463" Properties=species:S:1:pos:R:3:force:R:3:Z:I:1:map_shift:I:3:n_neighb:I:1
Al             -0.05677200     -0.17548800      0.03196783      1.34457311      1.20262605      0.28359830      13       0       0       0      75
Al              2.08663200      1.90630000      0.08025983     -1.23144411     -0.25443953     -0.08943899      13      -1       0       0      77
Al              2.17390400     -0.07219600      2.01149968     -1.86123373      0.78978788     -0.42276635      13      -1       0      -1      74
Al             -0.14458000      2.09796000      1.89144454      1.74810473     -1.73797440      0.22860704      13       0      -1      -1      72
2
energy=-3186.8479880289055 n_minim_iter=1 config_type=FLD_Ti_bcc Minim_Constant_Volume=F virial="3.22412191       0.18400689       0.01621040       0.18400689       3.22408267      -0.03313315       0.01621040      -0.03313315       3.01065312" cutoff=6.00000000 nneightol=1.20000000 pbc="T T T" Lattice="3.03910158      -0.19703315       0.00000000       0.00000000       3.03910158       0.00000000       0.00000000       0.00000000       3.03910158" Properties=species:S:1:pos:R:3:force:R:3:Z:I:1:map_shift:I:3:n_neighb:I:1
Ti              0.05932022      0.10569245     -0.06500942     -0.23552616     -0.10163440     -0.75692606      22       0       0       0      72
Ti              1.53873664      1.51310596      1.31710408      0.23552616      0.10163440      0.75692606      22      -1      -1       0      72
2
energy=-3186.7501816849822 n_minim_iter=1 config_type=FLD_Ti_bcc Minim_Constant_Volume=F virial="-1.55607264       0.07395115       0.18083422       0.07395115      -0.35110378      -0.03238850       0.18083422      -0.03238850      -0.38146672" cutoff=6.00000000 nneightol=1.20000000 pbc="T T T" Lattice="3.22904543       0.00000000       0.00000000       0.00000000       3.22904543       0.00000000      -0.16893696       0.00000000       3.22904543" Properties=species:S:1:pos:R:3:force:R:3:Z:I:1:map_shift:I:3:n_neighb:I:1
Ti             -0.10067233     -0.06803922      0.01883179      1.82882781      0.16956194      0.04192722      22       0       0       0      64
Ti              1.81329078      1.57433402      1.63666428     -1.82882781     -0.16956194     -0.04192722      22      -1       0      -1      64
8
virial="-10.17616489       0.08802773       0.50242017       0.08802773      -8.47836352       0.08801559       0.50242017       0.08801559     -10.17617703" config_type=TiAl_SQSS_fcc energy=-6815.7203453115699 cutoff=6.00000000 nneightol=1.20000000 pbc="T T T" Lattice="2.05550000       4.11100000       2.05550000      -4.11100000       0.00000000       4.11100000       2.05550000      -4.11100000       2.05550000" Properties=species:S:1:pos:R:3:force:R:3:Z:I:1:map_shift:I:3:n_neighb:I:1
Al              0.00000000      0.00000000      0.00000000     -0.03573223     -0.00000000      0.03573223      13       0       0       0      54
Al              0.00000000      2.05550000      2.05550000     -0.06333262      0.00000000      0.06333262      13      -1       0       0      54
Al             -2.05550000      0.00000000      2.05550000      0.11170073     -0.00000000     -0.11170073      13       0      -1       0      54
Al              2.05550000      0.00000000      2.05550000     -0.03159950      0.00000000      0.03159950      13      -1       0      -1      54
Ti             -2.05550000      2.05550000      4.11100000      0.11598338     -0.00000000     -0.11598338      22      -1      -1       0      54
Ti              0.00000000     -2.05550000      2.05550000      0.06330915     -0.00000000     -0.06330915      22       0       0      -1      54
Ti              0.00000000      0.00000000      4.11100000     -0.09525512      0.00000000      0.09525512      22      -1      -1      -1      54
Ti             -2.05550000     -2.05550000      4.11100000     -0.06507379      0.00000000      0.06507379      22       0      -1      -1      54
2
virial="-2.49016043       0.28619262      -0.00102885       0.28619262      -2.38013431      -0.00010844      -0.00102885      -0.00010844      -2.55699966" energy=-3187.1750094510862 config_type=FLD_Ti_hcp n_minim_iter=1 cutoff=6.00000000 nneightol=1.20000000 pbc="T T T" Lattice="2.97313768      -0.00000000       0.00000000      -1.48656884       2.55327716       0.00000000       0.00000000       0.00000000       4.70927195" Properties=species:S:1:pos:R:3:force:R:3:Z:I:1:map_shift:I:3:n_neighb:I:1
Ti              0.05328160      0.03861576     -0.06454999     -0.02010604     -0.00058799     -0.00300750      22       0       0       0      58
Ti              0.18981106      1.75411673      2.28874855      0.02010604      0.00058799      0.00300750      22       0      -1       0      58
4
virial="-3.29078349       1.71950395       0.00000085       1.71950395      -3.29078603      -0.00000085       0.00000085      -0.00000085      -4.36789580" config_type=TiAl_SQSS_fcc energy=-1923.7588535295235 cutoff=6.00000000 nneightol=1.20000000 pbc="T T T" Lattice="2.04050000       2.04050000       0.00000000      -4.08100000       4.08100000       0.00000000       0.00000000       0.00000000       4.08100000" Properties=species:S:1:pos:R:3:force:R:3:Z:I:1:map_shift:I:3:n_neighb:I:1
Al              0.00000000      0.00000000      0.00000000      0.22420295     -0.22420295     -0.00000000      13       0       0       0      78
Al              0.00000000      2.04050000      2.04050000     -0.00000000      0.00000000     -0.00000000      13      -1       0      -1      78
Al             -2.04050000      2.04050000      0.00000000     -0.22420295      0.22420295      0.00000000      13       0      -1       0      78
Ti             -2.04050000      4.08100000      2.04050000      0.00000000     -0.00000000      0.00000000      22      -1      -1      -1      78
7
virial="-5.72185028       1.05199269      -0.01165155       1.05199269      -8.15015129       0.01858970      -0.01165155       0.01858970     -10.85881546" config_type=TiAl_SQSS_fcc energy=-5221.8118455678969 cutoff=6.00000000 nneightol=1.20000000 pbc="T T T" Lattice="0.00000000       0.00000000       4.10200000       2.05100000       4.10200000      -2.05100000      -6.15300000       2.05100000       0.00000000" Properties=species:S:1:pos:R:3:force:R:3:Z:I:1:map_shift:I:3:n_neighb:I:1
Al              0.00000000      0.00000000      0.00000000      0.46690099      0.19197298     -0.00000638      13       0       0       0      78
Al             -0.00000000      2.05099795      2.05100205     -0.46690164     -0.19195995     -0.00000472      13      -1       0       0      78
Al             -2.05099795      2.05099795      0.00000000     -0.40385292     -0.31949237     -0.00000208      13       0       0       0      78
Al             -4.10200205      2.05100000      2.05100205      0.40385770      0.31950569     -0.00000550      13      -1       0      -1      78
Ti              0.00000205      4.10200000     -0.00000205     -0.70534075      0.04564273      0.00000777      22       0      -1       0      78
Ti             -2.05100205      4.10200205      2.05100000      0.00001175     -0.00000938      0.00000029      22      -1      -1      -1      78
Ti             -4.10200000      4.10200205     -0.00000205      0.70532487     -0.04565970      0.00001063      22       0      -1      -1      78
2
energy=-3186.6320939283346 n_minim_iter=1 config_type=FLD_Ti_bcc Minim_Constant_Volume=F virial="3.14228083       0.09442527      -0.28468404       0.09442527       2.96446328      -0.22187700      -0.28468404      -0.22187700       3.37441627" cutoff=6.00000000 nneightol=1.20000000 pbc="T T T" Lattice="3.03910158       0.00000000       0.00000000      -0.18233733       3.03910158       0.00000000       0.00000000       0.00000000       3.03910158" Properties=species:S:1:pos:R:3:force:R:3:Z:I:1:map_shift:I:3:n_neighb:I:1
Ti              0.02103244     -0.17843477     -0.00503883      1.05017251      1.26952242      0.81889904      22       0       0       0      69
Ti              1.61522059      1.54937653      1.65629517     -1.05017251     -1.26952242     -0.81889904      22      -1      -1      -1      69
2
config_type=FLD_TiAl spacegroup="P 1" virial="3.78885280      -0.06609669       0.01831398      -0.06609669       3.71490282       2.50391136       0.01831398       2.50391136       3.84007627" energy=-1703.9122043155189 unit_cell=conventional n_minim_iter=2 cutoff=6.00000000 nneightol=1.20000000 pbc="T T T" Lattice="2.65283363       0.00000000       0.00000000       0.00000000       2.65283363      -0.23201983       0.00000000       0.00000000       3.82502801" Properties=species:S:1:pos:R:3:force:R:3:tags:I:1:Z:I:1:map_shift:I:3:n_neighb:I:1
Ti              1.31837342      1.50587836      1.87602843      0.53855713     -0.70035205      0.03139180       0      22       0      -1      -1      80
Al              0.07380979      0.06196224      0.11272818     -0.53855713      0.70035205     -0.03139180       1      13       0       0       0      80
8
virial="-7.78413796       1.00664308      -0.56663385       1.00664308      -7.41701911       1.00081243      -0.56663385       1.00081243      -7.75805060" config_type=TiAl_SQSS_fcc energy=-5331.4401037573671 cutoff=6.00000000 nneightol=1.20000000 pbc="T T T" Lattice="2.04800000       4.09600000       2.04800000      -4.09600000       0.00000000       4.09600000       0.00000000      -4.09600000       4.09600000" Properties=species:S:1:pos:R:3:force:R:3:Z:I:1:map_shift:I:3:n_neighb:I:1
Al              0.00000000      0.00000000      0.00000000      0.00000000     -0.00000000     -0.00000000      13       0       0       0      78
Al              0.00000000      2.04800000      2.04800000     -0.07585228     -0.11497660     -0.07585228      13      -1       0       0      78
Al             -2.04800000      0.00000000      2.04800000     -0.00000000      0.00000000      0.00000000      13       0      -1       0      78
Al             -2.04800000      2.04800000      4.09600000      0.07585228      0.11497660      0.07585228      13      -1      -1       0      78
Al              0.00000000     -2.04800000      2.04800000      0.00000000     -0.00000000      0.00000000      13       0       0      -1      78
Ti              0.00000000      0.00000000      4.09600000      0.21544473      0.00000000     -0.21544473      22      -1       0      -1      78
Ti             -2.04800000     -2.04800000      4.09600000     -0.00000000     -0.00000000     -0.00000000      22       0      -1      -1      78
Ti             -2.04800000      0.00000000      6.14400000     -0.21544473     -0.00000000      0.21544473      22       0      -1       0      78
4
virial="2.30624133      -0.15420181       0.33036112      -0.15420181       2.22504410       1.13404231       0.33036112       1.13404231       2.71993404" energy=-438.88636846645517 config_type=FLD_Al cutoff=6.00000000 nneightol=1.20000000 pbc="T T T" Lattice="3.92000000       0.00000000       0.00000000       0.00000000       3.92000000      -0.19815591       0.00000000       0.00000000       3.92000000" Properties=species:S:1:pos:R:3:force:R:3:Z:I:1:map_shift:I:3:n_neighb:I:1
Al             -0.10679648     -0.16516920     -0.06386102     -0.02875272      0.93174499      0.67364375      13       0       0       0      78
Al              1.76349824      1.93295592     -0.08568040      0.87421544     -0.86356913     -0.03392383      13       0       0       0      78
Al              1.95917288     -0.16471840      1.95555907     -0.19483273      0.67026722      0.06286762      13       0       0       0      78
Al              0.01251264      1.86105920      1.92738518     -0.65062999     -0.73844307     -0.70258754      13       0       0      -1      78
108
virial="308.48716678      -1.00314847      -3.71942099      -1.00314847     308.40349156     -24.62905000      -3.71942099     -24.62905000     300.32111272" config_type=Al_T3000 energy=-11759.301626522370 cutoff=6.00000000 nneightol=1.20000000 pbc="T T T" Lattice="11.76000000       0.00000000       0.00000000       0.00000000      11.76000000       0.00000000       0.00000000       0.00000000      11.76000000" Properties=species:S:1:pos:R:3:force:R:3:Z:I:1:map_shift:I:3:n_neighb:I:1
Al              2.54166528     -1.02107376      0.90306216     -7.65756003      1.01800235      0.35189855      13       0       0       0      75
Al              1.08504816      0.69635664     -4.73190648     -0.06919913      2.49839406     -3.24390652      13       0       0       0      76
Al             -0.75647376      2.47840824      0.76717536     -3.14143594     -2.56592730      1.67021079      13       0       0       0      79
Al              3.81350928      1.06689072      8.68645344      1.03766961      1.65827262     -0.37741692      13       0       0      -1      78
Al              5.40453144      3.28235712      2.86405392     -0.42945021     -0.28301089      1.07891756      13       0       0       0      75
Al              5.20077768      1.68232680      4.71613632     -2.21062220     -1.30632067      0.65389448      13       0       0       0      73
Al              1.37621400     -1.72280472      6.37296744      1.88920069     -0.65601955      0.31324630      13       0       0      -1      74
Al              0.14744688      1.97793792      4.75539120      1.41210915      1.34968829     -1.77345219      13       0       0       0      73
Al             -3.98915664     -0.89192544      7.38292800      1.49875364     -0.62125699     -1.30069655      13       0       0      -1      76
Al              1.86986352      5.73133008      8.07106440     -7.33482775      0.57136676      1.01237103      13       0       0      -1      75
Al              1.07593416      2.92601736      6.93587160     -2.50792343      1.48144922     -2.96801840      13       0       0      -1      76
Al              2.85244680      4.40642496      6.59587824      0.15212895      5.12431604      0.71078905      13       0       0      -1      81
Al              2.43043920      0.85522248     -6.83058432     -9.55699943      7.74620352     -9.71148040      13       0       0       1      76
Al              1.60565160      0.56211624     -0.96543720      1.97675165      2.62297144      5.02299987      13       0       0       0      76
Al              5.74405440      5.25716688     -0.57488760      3.87163701      3.20929798     -2.47668020      13       0       0       0      81
Al             -0.05125008      5.86359480     -1.57894464      1.78300456      2.25630445      0.53421599      13       0       0       0      78
Al             -4.46401368      1.67447112      3.89153688      2.52810339     -1.81593830     -1.61034660      13       0       0       0      79
Al             -1.39112568      7.20682200      5.27213736     -4.49699434      1.70045810      5.23404434      13       0      -1       0      73
Al              3.01034832      7.90899984      7.87589544      1.08486177      1.14121983     -0.67646637      13       0      -1      -1      72
Al             -0.28102872      1.52317872     -2.18017464      1.73889324      1.71832735      0.02380142      13       0       0       0      72
Al             -0.79158912      8.26686840     10.51895544      5.02730140      0.89013970      3.64148663      13       0      -1      -1      73
Al              6.05489472     10.13325096      5.01401712     -0.11544700      4.52072404      2.65399821      13      -1      -1       0      73
Al              3.69266352      2.46687168      6.44430360      2.69862565     -3.31507538      3.70189210      13       0       0      -1      75
Al             -0.53500944      4.06818384      8.57762640      0.59089624     -1.33874954     -1.60552263      13       0       0      -1      78
Al             -0.89532408      5.80742904      3.74544240     -2.36355292     -1.52231512      0.62061877      13       0       0       0      73
Al              0.94900848      7.21484232      6.38179920      1.41509231      0.25875689      0.33860221      13       0      -1      -1      72
Al              3.10033584      9.09097392      4.76091840     -0.78833753     -0.82009415      0.30781685      13       0      -1       0      71
Al             -2.43287352     13.91359704     -1.16189976     -1.08496571     -2.03519864      1.15704718      13       0      -1       0      72
Al              3.73639896      4.68977040      1.47169344     -2.72752288      1.44319151      2.94363364      13       0       0       0      77
Al              5.19926064      9.32436288      3.07139448     -1.51155672     -1.18427568     -3.31731707      13       0      -1       0      74
Al             -0.24211488      4.19160504      2.66097048      0.48335403     -6.69903197     -3.02455095      13       0       0       0      77
Al             -2.30237280      2.82863280      3.38740920     -0.15487534      1.50553648      0.31025226      13       0       0       0      71
Al             -0.33498360     10.99342440     10.41756072     -0.44972378     -1.81696241      1.67330800      13       0      -1      -1      74
Al              5.62199736     11.81550720      6.65073864      0.40843120      3.79321493      0.44435971      13       0      -1      -1      71
Al              3.50238672      9.59102088      9.86111280      0.61279689     -0.04604337      0.18640070      13       0      -1      -1      70
Al             -0.27400800     10.59833544     13.45595664      1.23946630     -0.57163482     -1.42746855      13       0      -1      -1      70
Al              3.16626240      0.18290328     -5.59377336     10.78169373    -10.93779178     14.46399816      13       0       0       0      72
Al              4.15046856      0.08287272      0.40194504      2.32858414      4.40791751     -4.61439587      13       0       0       0      74
Al              5.41061136      3.60057096      0.52021536      0.94177842     -3.86703017      4.46793892      13       0       0       0      72
Al              5.41262232      0.41844432      2.15995920      2.42362286      0.94461004      3.71646293      13       0       0       0      74
Al              6.87810648      1.32684552     -2.41450440      1.15018568      8.22663716     -2.66740132      13      -1       0       0      74
Al              5.73927984      5.86793424      4.03162200      1.09443521     -0.78544795      0.09995757      13       0       0       0      72
Al              5.60814408     -0.38069472      9.66747264     -7.60492799     -4.10180265      0.42039814      13       0       0      -1      78
Al              9.45852096      1.51143048      8.37015648     -1.85296916     -0.87769904     -3.64634872      13      -1       0      -1      75
Al              3.43623672     -0.57498168      3.47620896      1.28059049     -0.33356182     -1.95180476      13       0       0       0      68
Al              6.69811968      2.62745448      6.86973336     -6.41757359     -3.65645802      3.57584243      13      -1       0      -1      79
Al              2.87874216     -4.81315632     12.88019880     -0.99976217      1.46598961      2.00674334      13       0       0      -1      74
Al              5.03806632      9.80999208      7.57331064     -2.63923624     -0.94873681      1.84448793      13       0      -1      -1      73
Al              5.20923312      3.35967912     -3.07044192     -0.46780444      0.28874424      0.58360221      13       0       0       0      76
Al              2.20343592      6.93168504     -1.47811440     -3.96071433      1.51210109     -1.77350368      13       0      -1       0      75
Al             12.89964984      1.08528336      1.61081424     -1.96868356     -1.72136760     -0.96796471      13      -1       0       0      74
Al              5.24787648      8.04903792      5.65086816     -1.32361736      4.79011999     -8.23823083      13       0      -1       0      76
Al              3.49521312      3.76924464      4.57725072     10.20298886     -0.72122448     -3.41121335      13       0       0       0      73
Al              8.88951336      7.03243296      2.87179200     -1.20835648     -1.70362523      0.27726073      13      -1      -1       0      75
Al              9.19955400      7.27777008     10.04773224     -4.44346430     -4.53185868     -2.00105577      13      -1      -1      -1      76
Al              1.13190000      9.16505016      8.85191664     -1.68299445     -0.67165774     -0.08951026      13       0      -1      -1      77
Al              1.89727608      3.12106872      8.97960672      2.15849839     -0.07881715      3.85048657      13       0       0      -1      75
Al              4.61731704      9.71707632     12.19494360      3.58395134     -5.42564189     -0.23985820      13       0      -1      -1      73
Al             10.45647456      4.12470240     10.80225384     -1.44124970      0.92127573      2.26135893      13      -1       0      -1      74
Al             -0.40836600     11.32573848      7.91947800     -5.20531406     -3.02913900      0.86925043      13       0      -1      -1      75
Al              1.20183672      6.00273912      2.23644624      0.08709515      0.33240400      0.71584261      13       0      -1       0      76
Al              8.19557928      7.62372576      0.64049664     -3.16001784     -2.00149317      1.07223754      13      -1      -1       0      76
Al              7.41369216      8.76437520      3.91125840      1.97095915     -3.91738106     -1.63920120      13      -1      -1       0      75
Al              1.67662320      4.28346240      4.23797472     -8.56176195      2.66336490     -1.06506017      13       0       0       0      80
Al              8.64184776     14.81910528      6.34410840     10.96449146     -3.05379387      3.75970276      13      -1      -1      -1      74
Al              2.79043632      8.99206056      2.13364032     -0.94019208     -2.00175380      3.72287489      13       0      -1       0      75
Al             -1.88388144      9.62292576      9.13007592     -1.44722402      2.50829567     -3.00674080      13       0      -1      -1      75
Al             -0.71253840      7.22654352      8.13866088      0.43918361     -0.15459243      0.34129486      13       0      -1      -1      78
Al              6.61368288      8.55902208      9.30520584     -0.37484464      2.64414979      3.34668283      13      -1      -1      -1      80
Al              1.95413568     11.45268768      8.86379424      1.48986582     -2.99559941     -1.53601314      13       0      -1      -1      79
Al              9.54253440      5.25486192      7.19029920     -5.21955641      4.24242702      3.72914966      13      -1       0      -1      73
Al              0.44142336      7.60084080     15.88460832      5.34015488      4.34246865     -3.35453069      13       0      -1      -1      78
Al              2.55528336      1.98686376      3.16626240      1.23571061      3.06883083     -2.16857545      13       0       0       0      74
Al             10.09681848      0.86436000     -6.09637224     -2.24712389     -1.49010761      1.18459608      13      -1       0       1      76
Al              6.83895744      0.35147112      0.08184960     -1.11591443     -0.83283030     -0.38931160      13      -1       0       0      71
Al              5.66208720      6.94526784      1.67404776      0.45044890      0.16045420     -0.35824611      13       0      -1       0      67
Al              8.49577680     -0.98026656      4.43947056      1.23109844      2.52870466      0.40965193      13      -1       0       0      73
Al             12.70352832     -0.81024048      3.91999608     -0.91717004     -0.99072445     -0.22069295      13      -1       0       0      73
Al              8.03665464      4.21693608      9.44215104      4.08064159      1.77107868     -7.11811870      13      -1       0      -1      77
Al              6.60101736      5.33660568      7.08504720      2.55736916     -1.91343409      0.73436977      13      -1       0      -1      74
Al             10.89725112     -2.27376072      6.09546672     -1.93754340      0.34417072     -0.34171038      13      -1       0      -1      77
Al              8.29596264     -6.51896784     12.06467808      2.30864005      0.80498296     -2.73940687      13      -1       1      -1      71
Al              7.72363872     -0.56351568      9.79185816      7.28645858     -4.18425586      0.00880949      13      -1       0      -1      76
Al              9.57408648      0.08865864     11.98422792     -0.39812689     -0.50953305      0.70693208      13      -1       0      -1      75
Al             10.63576752      6.09510216      1.21483152     -0.05204466     -1.33567960     -2.01590543      13      -1      -1       0      73
Al             12.81909384      3.69470976      0.32176536      2.87229459      2.10105583     -1.08355910      13      -1       0       0      74
Al             10.33031328      0.62217456      2.80352520     -0.36582624     -0.10691831      0.83799285      13      -1       0       0      73
Al              7.35311640      4.66449816      2.20515288     -0.64956511     -0.24240724      3.26461097      13      -1       0       0      75
Al              7.34181504      3.29606928     -0.71792448     -3.11807359     -4.28535865      4.14488394      13      -1       0       0      76
Al             16.73423304      1.92245424     -0.79298856     -0.04677675     -1.23211135     -4.33272028      13      -1       0       0      74
Al              3.83836992      5.52000288      8.70866808      5.84939923     -0.02887933      0.92531462      13       0       0      -1      77
Al              8.06095080      6.22699056      5.03820744     -0.36804269      0.69269238      1.08725912      13      -1      -1       0      69
Al              3.30878184      4.61985720     10.79141112     -2.81719640     -5.63561176      0.11925364      13       0       0      -1      73
Al              7.36059576      3.84927144      5.08333056     -4.85753641      4.84620645     -7.81906075      13      -1       0       0      73
Al              8.48322888     -2.40058056     11.07579144      0.28014347      2.45447613     -0.36019453      13      -1       0      -1      75
Al              6.94870176      6.25083984      9.41046960     -0.42870024      0.95837961     -0.69914560      13      -1      -1      -1      70
Al             10.28042736      8.45930904      1.35944424      1.85208313      0.55067619     -5.22323256      13      -1      -1       0      75
Al             10.14812736      9.07345152      3.38314032      0.29224595      2.62425691      5.38471612      13      -1      -1       0      70
Al              7.89672240     13.75236744      1.25538000      1.79045256      1.65812316      2.63153724      13      -1      -1       0      72
Al              3.48565224      6.59951208      4.02603600     -1.93408182      0.10157484     -0.13446465      13       0      -1       0      75
Al              7.32473952     10.06887672      1.34997744     -0.59956052     -0.73156262      2.10747106      13      -1      -1       0      74
Al             14.98078176     13.99189512      0.87930696     -0.77800183      1.59030533     -0.63978298      13      -1      -1       0      77
Al             10.88469144      4.29418752      5.98341744      4.87402794     -2.68486752     -4.96705574      13      -1       0      -1      78
Al              6.81180360      8.30553528      7.08338904      1.32426407     -0.83469615     -0.83247422      13      -1      -1      -1      77
Al              4.76283528      6.50638464      6.64666968     -4.96513474     -6.35532118      3.04487107      13       0      -1      -1      78
Al             13.02281232      9.02323632     11.42409912      0.92174726      0.24103281      1.20064000      13      -1      -1      -1      76
Al              8.96302512      8.22079272      7.39522896      1.89974429     -0.30657278     -0.56844611      13      -1      -1      -1      72
Al              4.07920296      6.62042136     11.21920464      6.32375208      5.51985772     -1.77602824      13       0      -1      -1      76
108
virial="310.16279280      10.35498894      35.16093139      10.35498894     287.15014751     -16.77936401      35.16093139     -16.77936401     409.22222701" config_type=Al_T4000 energy=-11742.890934183097 cutoff=6.00000000 nneightol=1.20000000 pbc="T T T" Lattice="11.76000000       0.00000000       0.00000000       0.00000000      11.76000000       0.00000000       0.00000000       0.00000000      11.76000000" Properties=species:S:1:pos:R:3:force:R:3:Z:I:1:map_shift:I:3:n_neighb:I:1
Al              1.43583720      2.52422520      4.83026712      2.65669205      5.99096699      7.60773069      13       0       0       0      75
Al              3.54848592      6.67488192     -1.13293488      3.74570079     -1.89848641     -6.25043124      13       0      -1       0      74
Al              5.50941888     -0.38136504      6.18478392     -3.91935474     -3.20488900      5.65961748      13       0       0      -1      69
Al              0.90414408      6.95842728     -0.60435816      2.64646533     -3.63954972      8.55620198      13       0      -1       0      70
Al              0.80053848      0.83906424      7.16268672      6.00464076      0.07932519     -3.27471350      13       0       0      -1      69
Al             10.35059928      6.97686696      0.54895680      1.87305576      1.67530127      2.16892505      13      -1      -1       0      78