8
virial="-9.71415662       1.62320672      -0.12311611       1.62320672      -9.71417034       0.12315557      -0.12311611       0.12315557      -7.72398202" config_type=TiAl_SQSS_fcc energy=-5332.1725284016829 cutoff=6.00000000 nneightol=1.20000000 pbc="T T T" Lattice="2.04800000       2.04800000       0.00000000      -6.14400000       6.14400000       4.09600000       2.04800000      -2.04800000       4.09600000" Properties=species:S:1:pos:R:3:force:R:3:Z:I:1:map_shift:I:3:n_neighb:I:1
Al              0.00000000      0.00000000      0.00000000      0.02846102     -0.02846102     -0.09792420      13       0       0       0      78
Al              0.00000000      2.04800000      2.04800000      0.00000000     -0.00000000     -0.00000000      13      -1       0       0      78
Al             -2.04800000      2.04800000      4.09600000     -0.02846102      0.02846102      0.09792420      13       0      -1      -1      78
Al              0.00000000      0.00000000      4.09600000      0.00000000     -0.00000000      0.00000000      13       0       0      -1      78
Al             -4.09600000      4.09600000      4.09600000     -0.00000000      0.00000000     -0.00000000      13       0      -1       0      78
Ti             -2.04800000      4.09600000      6.14400000      0.00000000     -0.00000000     -0.00000000      22      -1      -1      -1      78
Ti              2.04800000      0.00000000      2.04800000      0.03953387     -0.03953387     -0.04959561      22      -1       0      -1      78
Ti             -2.04800000      4.09600000      2.04800000     -0.03953387      0.03953387      0.04959561      22      -1      -1       0      78
4
virial="-2.01580008      -0.27244623      -0.60444769      -0.27244623      -2.38296644       0.11146547      -0.60444769       0.11146547      -1.99736479" energy=-438.62481073642761 config_type=FLD_Al cutoff=6.00000000 nneightol=1.20000000 pbc="T T T" Lattice="4.16000000       0.00000000       0.00000000       0.36205160       4.16000000       0.00000000       0.00000000       0.00000000       4.16000000" Properties=species:S:1:pos:R:3:force:R:3:Z:I:1:map_shift:I:3:n_neighb:I:1
Al             -0.06696397      0.16494816     -0.02092480      0.06485037     -0.78658225     -0.27231704      13       0       0       0      62
Al              2.01489080      1.98712384      0.22547616      0.62032924      0.38207963     -0.75774306      13       0       0       0      63
Al              2.22274508     -0.08289632      2.05232768     -0.31660431      0.03234995      0.19343101      13      -1       0       0      62
Al              0.12113612      1.91908288      1.99521504     -0.36857530      0.37215267      0.83662908      13       0       0       0      63
8
virial="-11.98859755       0.00000798       0.00001685       0.00000798      -9.91704962      -0.00000000       0.00001685      -0.00000000     -11.12695177" config_type=TiAl_SQSS_fcc energy=-9782.5141539921478 cutoff=6.00000000 nneightol=1.20000000 pbc="T T T" Lattice="4.14200000       0.00000000       0.00000000       0.00000000       8.28400000       0.00000000       0.00000000       0.00000000       4.14200000" Properties=species:S:1:pos:R:3:force:R:3:Z:I:1:map_shift:I:3:n_neighb:I:1
Al              0.00000000      0.00000000      0.00000000      0.00000000      0.28893401      0.00000000      13       0       0       0      54
Al              0.00000000      2.07100000      2.07100000     -0.00000000     -0.28893401      0.00000000      13       0       0      -1      54
Ti              0.00000000      4.14200000      0.00000000      0.00000000     -0.42676410      0.00000000      22       0      -1       0      54
Ti              0.00000000      6.21300000      2.07100000      0.00000000      0.42676410      0.00000000      22       0      -1      -1      54
Ti              2.07100000      0.00000000      2.07100000     -0.00000000      0.11523585     -0.00000000      22      -1       0      -1      54
Ti              2.07100000      2.07100000      0.00000000     -0.00000000     -0.11523585      0.00000000      22      -1       0       0      54
Ti              2.07100000      4.14200000      2.07100000     -0.00000000     -0.27559031     -0.00000000      22      -1      -1      -1      54
Ti              2.07100000      6.21300000      0.00000000      0.00000000      0.27559031      0.00000000      22      -1      -1       0      54
128
virial="-201.39715844       4.28142471       3.68730136       4.28142471    -193.66259057       5.28121128       3.68730136       5.28121128    -188.92260269" config_type=Ti_T4200 energy=-203898.54804779086 cutoff=6.00000000 nneightol=1.20000000 pbc="T T T" Lattice="13.72800000       0.00000000       0.00000000       0.00000000      13.72800000       0.00000000       0.00000000       0.00000000      13.72800000" Properties=species:S:1:pos:R:3:force:R:3:Z:I:1:map_shift:I:3:n_neighb:I:1
Ti              1.01900198     -2.17160486     -0.32330813      0.11805128      0.46009688      0.37402955      22       0       0       0      55
Ti              2.73022464      0.33081734      4.25134195     -0.42658919     -0.69733730      1.55618241      22       0       0       0      55
Ti             -0.07837315     -1.66305110      2.46656467     -0.20753237     -0.15843393      0.31541470      22       0       0       0      60
Ti              0.41367955      4.40543875      3.03104630      1.15149049      0.39058111     -0.73584213      22       0       0       0      53
Ti              2.46056554      3.43603603      4.77505142     -0.65003010      0.23122218      0.59891130      22       0       0       0      58
Ti              1.58108122      2.21497162      8.40948451      0.97793589     -0.45810079     -0.86495824      22       0       0      -1      56
Ti              0.88465978      3.01304890     10.91407574      0.06423012     -0.99763741      0.55293465      22       0       0      -1      58
Ti             -1.44745286      0.12871373     14.34960384     -0.30362296      0.09636229     -0.22274639      22       0       0      -1      56
Ti             -2.44385856     -0.03931699      4.77315696      0.37070787     -0.17793235      0.79603257      22       0       0       0      59
Ti              2.90481734      2.20193002      2.75843568      0.26009510     -1.40948701     -2.16954953      22       0       0       0      54
Ti              0.47691072      7.02442541      3.25482643     -0.64391610     -0.67208891     -1.90297964      22       0      -1       0      58
Ti             -1.44336192      6.62915510      6.43939296     -0.51842664     -0.88628954      1.18311309      22       0       0       0      58
Ti              3.77694346      0.60467722      9.12150096     -0.93290323      0.90486964     -0.46367327      22       0       0      -1      55
Ti             -0.46215312      9.07393344      6.97670688     -1.74277879      1.65338142     -0.14181154      22       0      -1      -1      57
Ti             -1.73876102      2.36161411     11.44728499     -0.31308280     -0.56861462      0.24578996      22       0       0      -1      56
Ti              1.16121034      7.76723376     12.29303962      0.45216718     -0.08585048     -0.71506099      22       0      -1      -1      57
Ti              3.13252368      5.24323114     -0.83458003     -0.45322637      1.15734854     -0.13876580      22       0       0       0      58
Ti              3.08085149      4.42900973      1.68147408     -0.84510403      1.03530370     -1.11433199      22       0       0       0      54
Ti             -5.39467843      3.59843827      4.88939194      1.41554945      1.87950317      0.87145094      22       0       0       0      53
Ti             -0.32502413     11.84499888      5.58343843     -2.41759548      0.89021200      1.14322844      22       0      -1       0      55
Ti             -1.84700630     10.33145942      3.40177094     -0.71871198      0.65206286      0.90497333      22       0      -1       0      59
Ti              5.13001632     12.36515280      8.80010102     -1.70288076     -2.14928782     -0.53940591      22       0      -1      -1      53
Ti             -3.99712685      9.57182054     13.76960957      1.28266938     -0.08153499      0.22872943      22       0      -1      -1      57
Ti              3.20421130      9.56764723     11.91041280     -0.38936912     -0.50315762     -0.36087114      22       0      -1      -1      57
Ti              8.11916477      7.52700749      0.18278832      0.07413310     -1.56972518      1.27206966      22      -1      -1       0      57
Ti              2.45956339     10.62864317      8.80500192      0.83746996      1.89967593      1.24626224      22       0      -1      -1      57
Ti              0.87958042      7.19760413      6.22295731      1.68543103     -0.67106811     -1.53111065      22       0      -1       0      58
Ti             -2.11665168      7.80723715      4.21883405     -0.21552253     -0.06599349     -0.74832750      22       0      -1       0      56
Ti              6.14605306     13.89641510      2.43449606     -0.77379602      0.19657590      0.83568330      22       0      -1       0      57
Ti              0.46947014     13.18088429      8.84118893      1.37127887      2.20735066      0.85864127      22       0      -1      -1      57
Ti              5.66105654      7.41781498     13.30439510     -0.71966142      0.09152941     -1.53243666      22       0      -1      -1      56
Ti              4.62555350      9.56744131     18.40577482     -0.16958683     -0.70748934     -0.88746737      22       0      -1      -1      54
Ti              5.50797562     -8.38183632      6.35971565     -0.13170270      0.04396687     -1.40942535      22       0       1       0      53
Ti              7.99182384     -1.79934269      3.22860595      0.08270371      0.02452744      0.73201926      22      -1       0       0      60
Ti              5.12382499     -4.21439990      1.17850762     -0.26814192     -1.12099927      0.39662165      22       0       0       0      54
Ti              6.69822067     -1.44340310      5.83039142     -0.42234356      0.23329590     -0.05485016      22       0       0       0      56
Ti              3.12463008     -0.98752368      6.84630461     -0.14520634      0.45552160     -0.09973068      22       0       0       0      57
Ti              1.13692550      0.45483610     11.55402019      0.04299526     -0.14595399      0.75408050      22       0       0      -1      53
Ti              6.16459958     -3.39663667      9.79576541      0.04359304     -0.52716710      0.75528975      22       0       0      -1      54
Ti              6.35458138     -0.26915117     13.60573843     -0.03269123     -0.86283127      0.78733180      22       0       0      -1      57
Ti              0.62281190      2.66275152      0.23866128      0.11260204     -0.73207795      0.18227897      22       0       0       0      59
Ti              1.97526701     -0.41240285      1.80519082      0.78431223      0.07865359     -0.72452580      22       0       0       0      56
Ti              2.77738032      6.38568902      3.92771808      0.24660190     -0.59708622      0.59176888      22       0       0       0      58
Ti              0.20852832      1.22567702      6.13276435     -0.62906872     -0.43801738      0.45231976      22       0       0       0      60
Ti              3.86213942      3.09507370      6.87285456      1.41756373     -0.43910776      0.86122669      22       0       0      -1      56
Ti              6.85496698      2.23014106      6.86298413     -0.29907162     -0.01023933     -0.22696906      22       0       0       0      54
Ti              3.34681776      1.19587354     13.74739766     -0.58187060      0.40440831     -0.44860981      22       0       0      -1      52
Ti              6.18763517      5.75140051      8.75560858     -0.91314528     -0.14833339      0.72808426      22       0       0      -1      59
Ti              0.19596720      9.15782525      4.29645216      0.93330679      0.79379080      0.14891344      22       0      -1       0      58
Ti              9.55596470     13.15106707     -0.82679626      1.02180152     -0.06877742     -0.46952276      22      -1      -1       0      57
Ti              9.17919974      9.23967158     -3.65542320      0.12580059      0.29966104      0.07732994      22      -1      -1       0      59
Ti              7.37022000      9.89334403      5.05626950     -0.99527312     -0.70326235      0.24402599      22      -1      -1       0      61
Ti              7.43485142      1.35301795     12.05049331      1.12155416      1.21295950      0.03712491      22      -1       0      -1      57
Ti              2.54650282      4.81170518     10.15618032      1.52475789     -0.19097113     -0.56581660      22       0       0      -1      53
Ti              2.27985014      5.38942061      7.28866195      0.57263636     -0.57861448      0.54948249      22       0       0      -1      57
Ti              3.87065078      7.73472586      7.44687715      0.23697613     -1.89093073     -0.74543786      22       0      -1      -1      56
Ti              3.15436493     12.11472662     -2.53273363      0.34756336      0.67529013     -0.09707465      22       0      -1       0      56
Ti             10.34695834     12.97191667      2.45414083      0.21362513      0.12811787     -0.73898886      22      -1      -1       0      57
Ti              2.46401126      7.88425123      0.79188595      0.81171038     -0.87353302     -0.54661492      22       0      -1       0      58
Ti              4.32795792     11.93263843      3.77039520      0.18216969      0.52043440      0.12716628      22       0      -1       0      58
Ti              1.61465990     11.20358554      4.86038467      2.25840615      1.22382740     -1.58539138      22       0      -1       0      54
Ti              5.40810442      9.64785994      7.29645946      1.55551931      1.33724220      0.92074092      22       0      -1      -1      57
Ti              0.64061712     11.28636538     10.93056307     -0.09036925      0.34596906      0.16528585      22       0      -1      -1      58
Ti              3.63826320     11.24778970     13.97283888     -0.53424956      1.43802125      0.57878431      22       0      -1      -1      60
Ti              6.82582243      4.82039501     -2.05527379     -0.19650323     -0.29246463     -0.94911777      22       0       0       0      58
Ti              4.65015408      4.25539171      3.65070077      0.94292469      1.41334713      0.86697198      22       0       0       0      54
Ti             10.52998003      2.30793763      2.58852422     -0.03683973     -0.13195385      0.79196171      22      -1       0       0      57
Ti             11.90218973     -0.39595670      7.73243328     -0.48370724      0.23883921     -2.29025981      22      -1       0      -1      57
Ti              5.32671110     -0.03112138     11.13316090      0.77489116     -0.08059373     -0.00954947      22       0       0      -1      51
Ti              7.12614989     -0.34753805      8.29923494      1.99257445      0.67081963      0.91197867      22      -1       0      -1      55
Ti              8.21762198     -3.37397174      7.89984624      0.26287103      0.74659406     -1.08750568      22      -1       0      -1      59
Ti              9.24200534      1.23147024     10.04551891      0.52497271     -0.73930470     -0.49180178      22      -1       0      -1      56
Ti             13.15271443      5.01538752     -2.12929517      0.09162887     -0.53676582      0.40366439      22      -1       0       0      56
Ti              8.53071648      3.57806592      0.56244989     -0.15097524      1.06226282     -0.00072170      22      -1       0       0      57
Ti              1.45849018      8.46520646      8.52253459     -0.29670972     -0.27237055      0.63269549      22       0      -1      -1      62
Ti              5.80828934      7.71594595      3.31218202     -0.18422241     -0.47726189     -0.18253886      22       0      -1       0      54
Ti              8.83171661      5.13068899      9.09309773     -0.98935545     -0.31879724      0.08230156      22      -1       0      -1      55
Ti              8.87762304      6.26692810      2.18607418      0.98499489     -1.09515860      0.53881545      22      -1       0       0      54
Ti              9.41135395      3.77658653     11.55687562     -0.69395756     -0.99378124      0.03431547      22      -1       0      -1      52
Ti             13.55925542      4.19364317      8.17851091     -0.12343976      1.10520698      0.10952108      22      -1       0      -1      56
Ti              6.90970051      7.91124048     -3.54749366     -1.55887357     -0.34859886     -0.58554730      22      -1      -1       0      59
Ti             11.54635997     10.92327350      1.09096416      0.05182331      0.98586405     -1.49991080      22      -1      -1       0      58
Ti              3.67057891      2.51834669     -2.64242035      0.32323265     -0.20882476      0.58027022      22       0       0       0      56
Ti              5.76625421      5.68594541      1.39810070      0.49682528     -0.18780808      0.38398349      22       0       0       0      57
Ti              3.42022138      7.50992986      9.99935165      0.05534459      0.07445300      1.10474869      22       0      -1      -1      57
Ti             11.24262797      9.88167523      9.07089955      0.13771082     -0.34919441     -0.77850703      22      -1      -1      -1      60
Ti             10.19220259      4.80635126      6.74576074      0.80917967      1.08701906     -0.01538649      22      -1       0       0      61
Ti              7.89354509      9.05987597     12.26546006     -1.35304278      2.10811688     -0.83979222      22      -1      -1      -1      54
Ti              0.07960867      9.37788509      1.22467488     -0.62751444     -1.42809140      0.24231358      22       0      -1       0      58
Ti             11.09057664     16.31473958      0.07900464     -0.36457262      0.40716084      0.28840347      22      -1      -1       0      55
Ti              2.37694829      9.71161277      2.42458445      1.27719491      1.07219652      1.40802585      22       0      -1       0      56
Ti              8.56731533     14.77308518      1.17068266     -0.20685956     -0.01925694     -0.07232493      22      -1      -1       0      55
Ti              9.70119322      9.37600435      4.74986054      0.14730198     -0.87659544      0.30809224      22      -1      -1       0      54
Ti              7.41847392      7.75759670      7.30052294     -0.61002013     -0.35536187     -1.06608040      22      -1      -1      -1      56
Ti              7.99857802     12.03034061     10.85611613     -0.06746626      0.35754523      0.00677296      22      -1      -1      -1      59
Ti              5.74165363     10.91006717     12.40319309     -0.32323848      0.26093908     -0.79820710      22       0      -1      -1      57
Ti              5.54342131      3.11603635      0.82020682     -0.71303423     -1.01446000     -0.67909607      22       0       0       0      56
Ti             11.65910803     -0.33946598     -3.02552765      0.46712919      0.08800235      0.09168906      22      -1       0       0      60
Ti             10.79156707      5.43428371      4.26802147     -0.65110964     -0.85123042     -0.51585021      22      -1       0       0      56
Ti              6.42280954      3.15608093      9.17333789     -0.15490134      0.05577337      1.15638636      22       0       0      -1      54
Ti              6.88636291      3.33615110      2.94118282      0.92600157     -0.42708489     -0.85790117      22      -1       0       0      50
Ti              7.81283818      6.36307901      4.53218938     -0.06338323      0.26556425      1.15699985      22      -1       0       0      52
Ti             11.35727050      2.48828237      5.32798781      0.64337430      1.01125465     -0.34161743      22      -1       0       0      60
Ti             13.81364899      2.02216186     17.13461693     -0.23897794     -0.91357669      0.87106424      22      -1       0      -1      57
Ti              8.64633370      6.69977194     -2.47933171      1.44219544     -0.68267340      0.51976998      22      -1       0       0      54
Ti             14.00216189      6.12632592      0.26430518      0.15599428     -0.21591950      1.58644215      22      -1       0       0      59
Ti             10.96193155      5.62390858     -1.29930029     -0.57612879      0.63565999      1.47499000      22      -1       0       0      57
Ti             13.96780070      4.54672733      5.61284381     -0.95930089     -0.63847874     -0.10950296      22      -1       0       0      54
Ti              5.46756038      1.62731712      4.75459670     -0.85456218     -0.33418052     -0.32286686      22       0       0       0      52
Ti             11.10136685      4.09307184      9.36263328      0.75673310      0.24115567      0.51902781      22      -1       0      -1      59
Ti             12.61589472      1.87590374      8.92007002      0.21665444     -0.86931606     -0.45838877      22      -1       0      -1      57
Ti             12.17224694      5.00586029     15.55790122     -1.61164687     -0.40916468     -0.43119331      22      -1       0      -1      56
Ti              7.50410918     10.74338179      0.85937280     -0.50538260      1.16967136     -0.62538570      22      -1      -1       0      55
Ti             11.39255146      7.42073904      1.23497088      0.23553889      0.30822322     -0.03677184      22      -1      -1       0      61
Ti              8.35712592      8.88448704      2.63762928      0.23655457      0.04430104     -0.04082166      22      -1      -1       0      59
Ti              9.90719558      7.52179085      7.65337373      0.77795658      0.35470422      0.80787412      22      -1      -1      -1      57
Ti             12.09320112      6.60205603      9.79635571     -2.58477500      1.15137526     -0.66917555      22      -1       0      -1      59
Ti             13.28904720      8.90826394     10.53245107      0.41564065      0.58611797     -0.55522738      22      -1      -1      -1      59
Ti             14.47569552      6.35677786      9.89781936      0.68311589      0.25270997     -1.06977519      22      -1       0      -1      57
Ti             11.32735718     11.16765936     12.08216381      0.21743771     -0.85878044     -0.65094003      22      -1      -1      -1      58
Ti             16.84340486     10.06963901      6.50166317     -1.71248453     -0.18509314      0.18630874      22      -1      -1       0      58
Ti              9.51180173     16.34042467      7.44351379     -0.39174597     -1.36806901      0.81154365      22      -1      -1      -1      56
Ti              8.29448506     15.02337408      4.22805926      0.05399662     -1.49763757     -1.38095900      22      -1      -1       0      57
Ti              8.90938963     13.86835507      6.39296486      0.67757121     -1.03334964      0.80095646      22      -1      -1       0      55
Ti             10.61127725     11.21860397      5.98803005      0.22733181      1.41137430      1.55239358      22      -1      -1       0      64
Ti             13.36643194     11.07189283      8.58182582     -0.36673124     -0.74035101     -1.29678949      22      -1      -1      -1      54
Ti             11.64963571      8.29117661     12.30472214     -0.59605901     -0.16973966      0.25823513      22      -1      -1      -1      63
Ti              9.95735770     12.33732614      8.94742992     -1.26911408     -0.01879412     -0.07002933      22      -1      -1      -1      57
8
virial="-10.19397071       1.22952699       0.95669270       1.22952699      -6.81876492       1.35560689       0.95669270       1.35560689      -8.06418142" config_type=TiAl_SQSS_fcc energy=-5331.5798255463633 cutoff=6.00000000 nneightol=1.20000000 pbc="T T T" Lattice="2.04800000       4.09600000       2.04800000      -4.09600000       0.00000000       4.09600000       0.00000000      -4.09600000       4.09600000" Properties=species:S:1:pos:R:3:force:R:3:Z:I:1:map_shift:I:3:n_neighb:I:1
Al              0.00000000      0.00000000      0.00000000     -0.08413876      0.31125766      0.18331811      13       0       0       0      78
Al              0.00000000      2.04800000      2.04800000     -0.21563317     -0.16553905     -0.27989733      13      -1       0       0      78
Al             -2.04800000      0.00000000      2.04800000     -0.14050855     -0.28360534     -0.22563579      13       0      -1       0      78
Al              0.00000000     -2.04800000      2.04800000      0.14400499      0.31706986      0.43811128      13       0       0      -1      78
Al              0.00000000      0.00000000      4.09600000      0.17193177     -0.00636922     -0.08023288      13      -1       0      -1      78
Ti             -2.04800000      2.04800000      4.09600000     -0.17333718     -0.34146073     -0.30859117      22      -1      -1       0      78
Ti             -2.04800000     -2.04800000      4.09600000      0.28836123      0.23114322      0.22555404      22       0      -1      -1      78
Ti             -2.04800000      0.00000000      6.14400000      0.00931965     -0.06249640      0.04737374      22       0      -1       0      78
4
virial="0.54177138      -0.38134802      -0.41402996      -0.38134802       0.17473270      -0.23651065      -0.41402996      -0.23651065       0.31227798" energy=-438.94778941144619 config_type=FLD_Al cutoff=6.00000000 nneightol=1.20000000 pbc="T T T" Lattice="4.00000000       0.00000000       0.00000000       0.00000000       4.00000000       0.04407652       0.00000000       0.00000000       4.00000000" Properties=species:S:1:pos:R:3:force:R:3:Z:I:1:map_shift:I:3:n_neighb:I:1
Al             -0.17186400      0.12242800      0.10977305      1.09812522     -0.27274696     -0.77829482      13       0       0       0      74
Al              2.02070000      1.97810800     -0.09274697     -0.45754352      0.63461872      0.11471374      13      -1       0       0      76
Al              2.02766400      0.09220000      1.93117996     -0.58103952     -0.05410194      0.54895139      13      -1       0       0      76
Al              0.06025600      2.18336000      1.99674673     -0.05954218     -0.30776982      0.11462970      13       0      -1       0      78
8
virial="-9.32874867      -0.00006927       0.58952913      -0.00006927     -11.29313029      -0.00006839       0.58952913      -0.00006839      -9.32871272" config_type=TiAl_SQSS_fcc energy=-8298.7287901130967 cutoff=6.00000000 nneightol=1.20000000 pbc="T T T" Lattice="2.06300000       4.12600000       2.06300000      -4.12600000       0.00000000       4.12600000       2.06300000      -4.12600000       2.06300000" Properties=species:S:1:pos:R:3:force:R:3:Z:I:1:map_shift:I:3:n_neighb:I:1
Al              0.00000000      0.00000000      0.00000000      0.10827522      0.00000000     -0.10827522      13       0       0       0      54
Al              0.00000000      2.06300000      2.06300000     -0.31699382     -0.00000000      0.31699382      13      -1       0       0      54
Al              2.06300000      0.00000000      2.06300000      0.10827522      0.00000000     -0.10827522      13      -1       0      -1      54
Ti             -2.06300000      0.00000000      2.06300000     -0.10549669      0.00000000      0.10549669      22       0      -1       0      54
Ti             -2.06300000      2.06300000      4.12600000      0.09494526     -0.00000000     -0.09494526      22      -1      -1       0      54
Ti              0.00000000     -2.06300000      2.06300000      0.26507714     -0.00000000     -0.26507714      22       0       0      -1      54
Ti              0.00000000      0.00000000      4.12600000     -0.10549669     -0.00000000      0.10549669      22      -1      -1      -1      54
Ti             -2.06300000     -2.06300000      4.12600000     -0.04858563      0.00000000      0.04858563      22       0      -1      -1      54
8
virial="-9.03354153      -0.06032404      -0.29423438      -0.06032404      -9.03353806       0.29426126      -0.29423438       0.29426126     -10.14603193" config_type=TiAl_SQSS_fcc energy=-6815.5714689537681 cutoff=6.00000000 nneightol=1.20000000 pbc="T T T" Lattice="2.05550000       2.05550000       0.00000000      -6.16650000       6.16650000       4.11100000       2.05550000      -2.05550000       4.11100000" Properties=species:S:1:pos:R:3:force:R:3:Z:I:1:map_shift:I:3:n_neighb:I:1
Al              0.00000000      0.00000000      0.00000000      0.22276368     -0.22276368     -0.20704663      13       0       0       0      54
Al              0.00000000      2.05550000      2.05550000      0.00000000     -0.00000000     -0.00000000      13      -1       0       0      54
Al             -2.05550000      2.05550000      4.11100000     -0.22276368      0.22276368      0.20704663      13       0      -1       0      54
Al             -4.11100000      4.11100000      4.11100000     -0.00000000      0.00000000      0.00000000      13       0      -1       0      54
Ti             -2.05550000      4.11100000      6.16650000     -0.00000000      0.00000000     -0.00000000      22      -1      -1      -1      54
Ti              2.05550000      0.00000000      2.05550000      0.22474015     -0.22474015     -0.27344690      22      -1       0      -1      54
Ti              0.00000000     -0.00000000      4.11100000      0.00000000     -0.00000000     -0.00000000      22       0       0      -1      54
Ti             -2.05550000      4.11100000      2.05550000     -0.22474015      0.22474015      0.27344690      22      -1      -1       0      54
8