2
Lattice="3.1053252570330043 0.0 0.0 0.0 3.0391015823476537 0.0 0.0 0.0 3.0391015823476537" Properties=species:S:1:pos:R:3:force:R:3 energy=-3186.67702577 n_minim_iter=1 config_type=FLD_Ti_bcc Minim_Constant_Volume=F virial="3.23310649692376 0.032545650911340034 -0.02496780679963829 0.032545650911340034 3.320792058144008 0.005467089347555483 -0.02496780679963829 0.005467089347555483 1.8654115215772176" pbc="T T T"
Ti      -0.21307500       0.04024682       0.05560340       0.61151000      -0.12948000      -1.69792000
Ti       1.42163343       1.54085185       1.25692987      -0.61151000       0.12948000       1.69792000
2
Lattice="3.0391015823476537 -0.00759633840348032 0.0 0.0 3.0391015823476537 0.0 0.0 0.0 3.0391015823476537" Properties=species:S:1:pos:R:3:force:R:3 energy=-3186.68241113 n_minim_iter=1 config_type=FLD_Ti_bcc Minim_Constant_Volume=F virial="3.739975896313608 -0.051318539174066334 0.03716266738223047 -0.051318539174066334 3.2676445607999036 -0.08057669388916747 0.03716266738223047 -0.08057669388916747 2.93552818656293" pbc="T T T"
Ti      -0.08171232      -0.00481027      -0.05025154      -0.15856000      -1.13171000       1.41232000
Ti       1.41496011       1.35134641       1.69404385       0.15856000       1.13171000      -1.41232000
2
Lattice="3.0391015823476537 0.0 -0.07992655332827131 0.0 3.0391015823476537 0.0 0.0 0.0 3.0391015823476537" Properties=species:S:1:pos:R:3:force:R:3 energy=-3186.81686795 n_minim_iter=1 config_type=FLD_Ti_bcc Minim_Constant_Volume=F virial="3.042004519545299 -0.003608345735453606 0.19771092668075105 -0.003608345735453606 3.399067464279588 -0.014732443253060263 0.19771092668075105 -0.014732443253060263 3.197691253022636" pbc="T T T"
Ti      -0.06944651      -0.02461976      -0.17499157       1.06585000       0.11199000       0.81608000
Ti       1.60409860       1.51036055       1.40967101      -1.06585000      -0.11199000      -0.81608000
2
Lattice="3.0391015823476537 0.0 0.0 -0.11819441031201516 3.0391015823476537 0.0 0.0 0.0 3.0391015823476537" Properties=species:S:1:pos:R:3:force:R:3 energy=-3186.65489929 n_minim_iter=1 config_type=FLD_Ti_bcc Minim_Constant_Volume=F virial="3.752764535141787 0.0038231365623940853 -0.09760315923681064 0.0038231365623940853 3.638904373291365 0.0718082876105834 -0.09760315923681064 0.0718082876105834 2.6265757591168137" pbc="T T T"
Ti      -0.05744956      -0.06333792      -0.15220732      -0.39716000       0.66522000       1.65877000
Ti       1.35459632       1.54344421       1.64842997       0.39716000      -0.66522000      -1.65877000
2
Lattice="3.0391015823476537 0.0 0.0 0.0 3.0207360352088433 0.0 0.0 0.0 3.0391015823476537" Properties=species:S:1:pos:R:3:force:R:3 energy=-3186.63068853 n_minim_iter=1 config_type=FLD_Ti_bcc Minim_Constant_Volume=F virial="3.535946751134895 0.00013338948298639288 0.045287819126355364 0.00013338948298639288 3.9706594192957194 2.6817206762277422e-05 0.045287819126355364 2.6817206762277422e-05 2.94990092832271" pbc="T T T"
Ti       0.01662996       0.03533657      -0.11420032       1.08855000      -0.00031000       1.54969000
Ti       1.68562554       1.54565324       1.65835568      -1.08855000       0.00031000      -1.54969000
2
Lattice="3.0391015823476537 0.0 0.0 0.0 3.0391015823476537 0.10335173384721608 0.0 0.0 3.0391015823476537" Properties=species:S:1:pos:R:3:force:R:3 energy=-3186.92167407 n_minim_iter=1 config_type=FLD_Ti_bcc Minim_Constant_Volume=F virial="3.153847119272519 -0.019389690033287645 -0.014470874978490821 -0.019389690033287645 3.0766501397736525 -0.16105335061505355 -0.014470874978490821 -0.16105335061505355 3.145091151940683" pbc="T T T"
Ti      -0.08261798      -0.09552200      -0.02019144       0.23550000      -0.46374000      -0.03850000
Ti       1.47090997       1.35368574       1.54068667      -0.23550000       0.46374000       0.03850000
2
Lattice="3.0391015823476537 0.0 0.0 0.0 3.0391015823476537 0.0 -0.11528200667932142 0.0 3.0391015823476537" Properties=species:S:1:pos:R:3:force:R:3 energy=-3186.85536773 n_minim_iter=1 config_type=FLD_Ti_bcc Minim_Constant_Volume=F virial="3.3134027155812804 -0.06213394057660844 0.13211089987233962 -0.06213394057660844 3.2056376376372686 0.08724011502444823 0.13211089987233962 0.08724011502444823 3.137876212434106" pbc="T T T"
Ti       0.13574241      -0.02907812      -0.02165664      -0.30755000       0.72957000       0.77750000
Ti       1.55105392       1.59175681       1.61205497       0.30755000      -0.72957000      -0.77750000
2
Lattice="3.0391015823476537 0.0 0.0 0.0 3.0391015823476537 0.0 0.0 0.09106252949841459 3.0391015823476537" Properties=species:S:1:pos:R:3:force:R:3 energy=-3186.77507273 n_minim_iter=1 config_type=FLD_Ti_bcc Minim_Constant_Volume=F virial="3.4569346709252757 0.0348025962323812 0.00034706413390627274 0.0348025962323812 3.1641623348586543 -0.040536425093807 0.00034706413390627274 -0.040536425093807 3.3293264945791985" pbc="T T T"
Ti      -0.04220096      -0.01052863       0.05665797      -0.72869000      -1.07395000      -0.82078000
Ti       1.38388834       1.39181193       1.45792389       0.72869000       1.07395000       0.82078000
2
Lattice="3.0391015823476537 0.0 0.0 0.0 3.0391015823476537 0.0 0.0 0.0 3.107197714459268" Properties=species:S:1:pos:R:3:force:R:3 energy=-3186.68637164 n_minim_iter=1 config_type=FLD_Ti_bcc Minim_Constant_Volume=F virial="3.074849107489209 -0.10611993383091757 0.19595875251084655 -0.10611993383091757 2.4968657580670954 -0.008215788815877754 0.19595875251084655 -0.008215788815877754 2.7399391496000964" pbc="T T T"
Ti       0.12096840      -0.05367053       0.03009321      -0.73164000      -1.34638000       1.23064000
Ti       1.52717894       1.24055519       1.76432901       0.73164000       1.34638000      -1.23064000
2
Lattice="3.0380291185131867 0.0 0.0 0.0 3.0391015823476537 0.0 0.0 0.0 3.0391015823476537" Properties=species:S:1:pos:R:3:force:R:3 energy=-3186.75134558 n_minim_iter=1 config_type=FLD_Ti_bcc Minim_Constant_Volume=F virial="3.377669523138033 0.08561788081048109 0.023534588659359562 0.08561788081048109 3.449637587714537 0.006352132241962876 0.023534588659359562 0.006352132241962876 3.071443157885292" pbc="T T T"
Ti      -0.05267639       0.05525998       0.04204293       0.81841000      -0.68450000       1.20677000
Ti       1.57847183       1.48191456       1.74560221      -0.81841000       0.68450000      -1.20677000
2
Lattice="3.1979776336938026 0.0 0.0 0.0 3.0391015823476537 0.0 0.0 0.0 3.0391015823476537" Properties=species:S:1:pos:R:3:force:R:3 energy=-3186.99221336 n_minim_iter=1 config_type=FLD_Ti_bcc Minim_Constant_Volume=F virial="1.8784149910038448 -0.05991305347901636 -0.07399797748782388 -0.05991305347901636 1.943071135867772 0.03868842008141683 -0.07399797748782388 0.03868842008141683 1.9227055978469483" pbc="T T T"
Ti      -0.06754768       0.00682278       0.04713647       0.75044000      -0.45352000      -0.51434000
Ti       1.64604706       1.45692402       1.48706280      -0.75044000       0.45352000       0.51434000
2
Lattice="3.0391015823476537 -0.039001202947107905 0.0 0.0 3.0391015823476537 0.0 0.0 0.0 3.0391015823476537" Properties=species:S:1:pos:R:3:force:R:3 energy=-3186.83497615 n_minim_iter=1 config_type=FLD_Ti_bcc Minim_Constant_Volume=F virial="3.343310673866628 0.06835236277189834 -0.03296688800670229 0.06835236277189834 3.084531876904483 0.05345470928245563 -0.03296688800670229 0.05345470928245563 3.2581158020018073" pbc="T T T"
Ti      -0.05859996      -0.09645364       0.03864218       0.45902000       0.95682000       0.66345000
Ti       1.51914051       1.54372431       1.64892535      -0.45902000      -0.95682000      -0.66345000
2
Lattice="3.0391015823476537 0.06600688913942981 0.0 0.0 3.0391015823476537 0.0 0.0 0.0 3.0391015823476537" Properties=species:S:1:pos:R:3:force:R:3 energy=-3186.50906544 n_minim_iter=1 config_type=FLD_Ti_bcc Minim_Constant_Volume=F virial="3.9051561741059957 0.3166379445719121 -0.18749452188286592 0.3166379445719121 3.5419546967498947 0.09923616518943072 -0.18749452188286592 0.09923616518943072 2.496595072674139" pbc="T T T"
Ti       0.01869959       0.05706715      -0.15707293       0.68191000      -1.10271000       1.71201000
Ti       1.64400808       1.44487414       1.67352383      -0.68191000       1.10271000      -1.71201000
2
Lattice="3.0391015823476537 0.0 -0.032434210768232885 0.0 3.0391015823476537 0.0 0.0 0.0 3.0391015823476537" Properties=species:S:1:pos:R:3:force:R:3 energy=-3186.84884257 n_minim_iter=1 config_type=FLD_Ti_bcc Minim_Constant_Volume=F virial="3.360018106509656 0.026323264068358138 0.024525573468654825 0.026323264068358138 2.9851997040697316 -0.006242424106620093 0.024525573468654825 -0.006242424106620093 3.3692824938902537" pbc="T T T"
Ti       0.01678800       0.15867757      -0.12089532      -0.17590000      -1.10481000       0.00865000
Ti       1.51366101       1.50895344       1.38357996       0.17590000       1.10481000      -0.00865000
2
Lattice="3.0391015823476537 0.0 0.11208151825451235 0.0 3.0391015823476537 0.0 0.0 0.0 3.0391015823476537" Properties=species:S:1:pos:R:3:force:R:3 energy=-3186.75881725 n_minim_iter=1 config_type=FLD_Ti_bcc Minim_Constant_Volume=F virial="3.3987778645757274 -0.15969978297317575 -0.0977918457952241 -0.15969978297317575 3.3189198264550024 -0.0004667232976912219 -0.0977918457952241 -0.0004667232976912219 2.9649538290680444" pbc="T T T"
Ti      -0.06632231       0.01300128      -0.00329994       0.66482000       0.71758000      -1.20129000
Ti       1.53736297       1.63799370       1.38886050      -0.66482000      -0.71758000       1.20129000
2
Lattice="3.0391015823476537 0.0 0.0 -0.040523079084920366 3.0391015823476537 0.0 0.0 0.0 3.0391015823476537" Properties=species:S:1:pos:R:3:force:R:3 energy=-3186.78525386 n_minim_iter=1 config_type=FLD_Ti_bcc Minim_Constant_Volume=F virial="3.103431016925182 0.02615349872471595 0.06854350208037471 0.02615349872471595 3.437724206843016 0.01648545876233142 0.06854350208037471 0.01648545876233142 3.325079557845215" pbc="T T T"
Ti       0.00294480       0.16639081       0.00203924       1.11431000      -0.55197000       0.83002000
Ti       1.66937195       1.61053845       1.63228323      -1.11431000       0.55197000      -0.83002000
2
Lattice="3.0391015823476537 0.0 0.0 0.18323672645672426 3.0391015823476537 0.0 0.0 0.0 3.0391015823476537" Properties=species:S:1:pos:R:3:force:R:3 energy=-3186.92609023 n_minim_iter=1 config_type=FLD_Ti_bcc Minim_Constant_Volume=F virial="3.0647215402354004 -0.2804488437682364 0.010351481247779971 -0.2804488437682364 3.086662090334148 0.009359869436619192 0.010351481247779971 0.009359869436619192 3.139734696196084" pbc="T T T"
Ti       0.03420219       0.03367325      -0.02780170      -0.19047000      -0.25940000      -0.11585000
Ti       1.61140078       1.51038790       1.47433504       0.19047000       0.25940000       0.11585000
2
Lattice="3.0391015823476537 0.0 0.0 0.0 2.8535490684511915 0.0 0.0 0.0 3.0391015823476537" Properties=species:S:1:pos:R:3:force:R:3 energy=-3186.48923325 n_minim_iter=1 config_type=FLD_Ti_bcc Minim_Constant_Volume=F virial="5.466694704410975 0.02770439919787735 -0.01574575685695909 0.02770439919787735 5.186374369811404 -0.017036586828611092 -0.01574575685695909 -0.017036586828611092 4.5525330967820805" pbc="T T T"
Ti      -0.07330921      -0.00288779      -0.02282669       0.14931000      -0.57583000       1.58560000
Ti       1.46311467       1.34148481       1.71431466      -0.14931000       0.57583000      -1.58560000
2
Lattice="3.0391015823476537 0.0 0.0 0.0 3.1366109883100206 0.0 0.0 0.0 3.0391015823476537" Properties=species:S:1:pos:R:3:force:R:3 energy=-3186.96094881 n_minim_iter=1 config_type=FLD_Ti_bcc Minim_Constant_Volume=F virial="2.3048409133287224 -0.06322956441282677 0.061447787773363495 -0.06322956441282677 2.4172266466395897 -0.01929305720053706 0.061447787773363495 -0.01929305720053706 2.3986241318569657" pbc="T T T"
Ti       0.02399067      -0.06949789       0.09029171      -0.69414000       0.52507000      -0.43428000
Ti       1.43389371       1.57180595       1.54573569       0.69414000      -0.52507000       0.43428000
2
Lattice="3.0391015823476537 0.0 0.0 0.0 3.0391015823476537 -0.17791450577781048 0.0 0.0 3.0391015823476537" Properties=species:S:1:pos:R:3:force:R:3 energy=-3186.46317958 n_minim_iter=1 config_type=FLD_Ti_bcc Minim_Constant_Volume=F virial="4.205652570513688 -0.13218816149932228 -0.0070430718057375415 -0.13218816149932228 3.705596574663518 0.05200688595958765 -0.0070430718057375415 0.05200688595958765 1.774126854652198" pbc="T T T"
Ti      -0.07805021      -0.06721277       0.00297744       0.22232000       0.98941000       1.82198000
Ti       1.47576342       1.58339320       1.79716454      -0.22232000      -0.98941000      -1.82198000
2
Lattice="3.0391015823476537 0.0 0.0 0.0 3.0391015823476537 0.20797355677341856 0.0 0.0 3.0391015823476537" Properties=species:S:1:pos:R:3:force:R:3 energy=-3186.73546704 n_minim_iter=1 config_type=FLD_Ti_bcc Minim_Constant_Volume=F virial="3.7432916640058393 -0.0020690698745245233 -0.0034462890348663762 -0.0020690698745245233 3.534443675271435 -0.12036012471365132 -0.0034462890348663762 -0.12036012471365132 2.848429980649267" pbc="T T T"
Ti       0.14228770       0.03930166       0.16117258       0.02914000      -0.43242000      -1.48887000
Ti       1.66532738       1.48156202       1.54126177      -0.02914000       0.43242000       1.48887000
2
Lattice="3.0391015823476537 0.0 0.0 0.0 3.0391015823476537 0.0 -0.10886790417037184 0.0 3.0391015823476537" Properties=species:S:1:pos:R:3:force:R:3 energy=-3186.82890188 n_minim_iter=1 config_type=FLD_Ti_bcc Minim_Constant_Volume=F virial="3.2987063627934323 0.07450526150122104 0.07198593679371362 0.07450526150122104 2.9980125200056738 -0.05390654088333613 0.07198593679371362 -0.05390654088333613 3.4024228263656924" pbc="T T T"
Ti       0.09258633      -0.10724686      -0.08322884       0.54202000       1.09866000      -0.00266000
Ti       1.62882626       1.58247539       1.43550140      -0.54202000      -1.09866000       0.00266000
2
Lattice="3.0391015823476537 0.0 0.0 0.0 3.0391015823476537 0.0 0.06545884012963346 0.0 3.0391015823476537" Properties=species:S:1:pos:R:3:force:R:3 energy=-3186.91201534 n_minim_iter=1 config_type=FLD_Ti_bcc Minim_Constant_Volume=F virial="3.14636588118768 0.03411127110749774 -0.0876332558202512 0.03411127110749774 3.134870717624837 0.029577362616149717 -0.0876332558202512 0.029577362616149717 3.1671075620949485" pbc="T T T"
Ti      -0.16139624       0.02052305      -0.14188350       0.36931000       0.47167000       0.29355000
Ti       1.44528907       1.60862686       1.42108390      -0.36931000      -0.47167000      -0.29355000
2
Lattice="3.0391015823476537 0.0 0.0 0.0 3.0391015823476537 0.0 0.0 -0.1402392499007912 3.0391015823476537" Properties=species:S:1:pos:R:3:force:R:3 energy=-3186.88163811 n_minim_iter=1 config_type=FLD_Ti_bcc Minim_Constant_Volume=F virial="3.288789894288958 0.03605349876448155 -0.0238656085052904 0.03605349876448155 3.035727406544932 0.1673761898844515 -0.0238656085052904 0.1673761898844515 3.2516139119778145" pbc="T T T"
Ti       0.01050010       0.06140328       0.05358240       0.26273000       0.79389000      -0.23171000
Ti       1.56480909       1.63530969       1.53171328      -0.26273000      -0.79389000       0.23171000
2
Lattice="3.0391015823476537 0.0 0.0 0.0 3.0391015823476537 0.0 0.0 0.0006997065301484612 3.0391015823476537" Properties=species:S:1:pos:R:3:force:R:3 energy=-3186.68260325 n_minim_iter=1 config_type=FLD_Ti_bcc Minim_Constant_Volume=F virial="3.703411174357437 0.05386501932869918 0.004638500761889186 0.05386501932869918 3.6451387383620646 -0.021726284861105897 0.004638500761889186 -0.021726284861105897 2.676601523811277" pbc="T T T"
Ti      -0.03050042      -0.02983105      -0.20785024       0.28355000      -0.49874000       1.63922000
Ti       1.52730050       1.42307770       1.58463315      -0.28355000       0.49874000      -1.63922000
2
Lattice="3.0391015823476537 0.0 0.0 0.0 3.0391015823476537 0.0 0.0 0.0 2.8136583514108566" Properties=species:S:1:pos:R:3:force:R:3 energy=-3186.35561912 n_minim_iter=1 config_type=FLD_Ti_bcc Minim_Constant_Volume=F virial="5.408373547082444 0.28559725922464524 -0.17377708502788275 0.28559725922464524 5.621623512388643 0.2026895964014928 -0.17377708502788275 0.2026895964014928 5.08212648287442" pbc="T T T"
Ti      -0.07589548      -0.03420205      -0.06851258       1.22036000      -0.98327000       0.98859000
Ti       1.60041217       1.36056627       1.52152514      -1.22036000       0.98327000      -0.98859000
2
Lattice="3.0391015823476537 0.0 0.0 0.0 3.0391015823476537 0.0 0.0 0.0 3.040168545796291" Properties=species:S:1:pos:R:3:force:R:3 energy=-3186.88660257 n_minim_iter=1 config_type=FLD_Ti_bcc Minim_Constant_Volume=F virial="3.1465947389032722 0.0640261072158558 0.004107169842205108 0.0640261072158558 3.1225821226630317 0.005745831588508404 0.004107169842205108 0.005745831588508404 3.2745088500776487" pbc="T T T"
Ti      -0.08954105      -0.06312214       0.00703495       0.62085000       0.67079000       0.11306000
Ti       1.51816800       1.55322404       1.54211333      -0.62085000      -0.67079000      -0.11306000
2
Lattice="2.943856832822555 0.0 0.0 0.0 3.0391015823476537 0.0 0.0 0.0 3.0391015823476537" Properties=species:S:1:pos:R:3:force:R:3 energy=-3186.80203409 n_minim_iter=1 config_type=FLD_Ti_bcc Minim_Constant_Volume=F virial="4.027271430055105 0.008458137912604337 -4.4123512385175105e-05 0.008458137912604337 3.9498085311233253 -0.001048272830781641 -4.4123512385175105e-05 -0.001048272830781641 4.084383377134124" pbc="T T T"
Ti      -0.01162823       0.03681568       0.07123350       0.11322000       0.66596000      -0.01768000
Ti       1.47594972       1.64805008       1.58852016      -0.11322000      -0.66596000       0.01768000
2
Lattice="3.217806851114844 0.0 0.0 0.0 3.0391015823476537 0.0 0.0 0.0 3.0391015823476537" Properties=species:S:1:pos:R:3:force:R:3 energy=-3187.07137336 n_minim_iter=1 config_type=FLD_Ti_bcc Minim_Constant_Volume=F virial="1.6401176582495132 -0.0012200225475494314 -0.002108930567597611 -0.0012200225475494314 1.638511428169046 0.00013188931599629708 -0.002108930567597611 0.00013188931599629708 1.638376570879694" pbc="T T T"
Ti      -0.00718536       0.01258188       0.02789287      -0.31686000       0.01324000       0.02285000
Ti       1.55101508       1.53440592       1.55138234       0.31686000      -0.01324000      -0.02285000
2
Lattice="3.0391015823476537 -0.19703315401222146 0.0 0.0 3.0391015823476537 0.0 0.0 0.0 3.0391015823476537" Properties=species:S:1:pos:R:3:force:R:3 energy=-3186.86934713 n_minim_iter=1 config_type=FLD_Ti_bcc Minim_Constant_Volume=F virial="3.2241219125044642 0.18400688648979568 0.0162104003624158 0.18400688648979568 3.2240826685034576 -0.03313314942168314 0.0162104003624158 -0.03313314942168314 3.0106531178479106" pbc="T T T"
Ti       0.05932022       0.10569245      -0.06500942      -0.30796000      -0.11661000      -0.84431000
Ti       1.53873664       1.51310596       1.31710408       0.30796000       0.11661000       0.84431000
2
Lattice="3.0391015823476537 0.016519508832011365 0.0 0.0 3.0391015823476537 0.0 0.0 0.0 3.0391015823476537" Properties=species:S:1:pos:R:3:force:R:3 energy=-3186.50191128 n_minim_iter=1 config_type=FLD_Ti_bcc Minim_Constant_Volume=F virial="2.904920493723912 0.23484503704439155 0.09379981987135316 0.23484503704439155 3.90727780291044 -0.32422044619506374 0.09379981987135316 -0.32422044619506374 3.111151222944725" pbc="T T T"
Ti       0.19413781      -0.02274090      -0.15730998      -1.55156000       0.70640000       1.43591000
Ti       1.45512792       1.61674005       1.59242845       1.55156000      -0.70640000      -1.43591000
2
Lattice="3.0391015823476537 0.0 -0.0908737542339633 0.0 3.0391015823476537 0.0 0.0 0.0 3.0391015823476537" Properties=species:S:1:pos:R:3:force:R:3 energy=-3186.84947677 n_minim_iter=1 config_type=FLD_Ti_bcc Minim_Constant_Volume=F virial="3.3464293455716585 0.059987083485802055 0.08985264423434744 0.059987083485802055 3.06028398978224 -0.08444835986352119 0.08985264423434744 -0.08444835986352119 3.2625624626694876" pbc="T T T"
Ti      -0.06604576       0.10836221      -0.03928397      -0.23413000      -0.97044000       0.54580000
Ti       1.42157016       1.48194799       1.50822487       0.23413000       0.97044000      -0.54580000
2
Lattice="3.0391015823476537 0.0 0.10250360336201764 0.0 3.0391015823476537 0.0 0.0 0.0 3.0391015823476537" Properties=species:S:1:pos:R:3:force:R:3 energy=-3186.87799603 n_minim_iter=1 config_type=FLD_Ti_bcc Minim_Constant_Volume=F virial="3.231053559378771 0.051474113606630074 -0.11548948867794799 0.051474113606630074 3.190421652228943 0.06452326953077996 -0.11548948867794799 0.06452326953077996 3.161702401741957" pbc="T T T"
Ti      -0.03378569       0.00860977       0.02866494      -0.41255000      -0.63010000      -0.59416000
Ti       1.42522620       1.43978653       1.51206945       0.41255000       0.63010000       0.59416000
2
Lattice="3.0391015823476537 0.0 0.0 -0.02405917819929171 3.0391015823476537 0.0 0.0 0.0 3.0391015823476537" Properties=species:S:1:pos:R:3:force:R:3 energy=-3186.74745308 n_minim_iter=1 config_type=FLD_Ti_bcc Minim_Constant_Volume=F virial="3.332214432581879 0.072671830829172 0.034507565439095916 0.072671830829172 3.2799601692588003 -0.016827267003245674 0.034507565439095916 -0.016827267003245674 3.2623692210038144" pbc="T T T"
Ti       0.07369240      -0.06260853      -0.07320284      -0.88807000       0.95839000       1.00016000
Ti       1.45422452       1.59555568       1.58922219       0.88807000      -0.95839000      -1.00016000
2
Lattice="3.0391015823476537 0.0 0.0 0.09492527613238129 3.0391015823476537 0.0 0.0 0.0 3.0391015823476537" Properties=species:S:1:pos:R:3:force:R:3 energy=-3186.59099236 n_minim_iter=1 config_type=FLD_Ti_bcc Minim_Constant_Volume=F virial="3.127674699333032 0.178015518871761 0.03979078907467267 0.178015518871761 3.7520970367318016 -0.2848893725607596 0.03979078907467267 -0.2848893725607596 2.967103489301779" pbc="T T T"
Ti       0.13480606      -0.05329976      -0.02551630      -1.33845000       0.61887000       1.39344000
Ti       1.49961444       1.56175176       1.72773837       1.33845000      -0.61887000      -1.39344000
2
Lattice="3.0391015823476537 0.0 0.0 0.0 2.928352749911185 0.0 0.0 0.0 3.0391015823476537" Properties=species:S:1:pos:R:3:force:R:3 energy=-3186.7664772 n_minim_iter=1 config_type=FLD_Ti_bcc Minim_Constant_Volume=F virial="4.1137324721706765 -0.011838451171792866 0.013134252437973023 -0.011838451171792866 4.2164593289849135 -0.0005526906390664191 0.013134252437973023 -0.0005526906390664191 4.238385988034106" pbc="T T T"
Ti      -0.11102750       0.09194735      -0.00987100       0.74314000      -0.16545000       0.34163000
Ti       1.50834866       1.53348170       1.55238828      -0.74314000       0.16545000      -0.34163000
2
Lattice="3.0391015823476537 0.0 0.0 0.0 3.265173264606098 0.0 0.0 0.0 3.0391015823476537" Properties=species:S:1:pos:R:3:force:R:3 energy=-3186.90094157 n_minim_iter=1 config_type=FLD_Ti_bcc Minim_Constant_Volume=F virial="1.2965395869956156 0.23086254207226858 -0.03414472016031772 0.23086254207226858 1.6170116907688872 0.009995330374604143 -0.03414472016031772 0.009995330374604143 1.8066549299508186" pbc="T T T"
Ti       0.18892271      -0.02691482       0.05696188      -1.16549000      -1.07821000       0.23630000
Ti       1.50551014       1.45296619       1.61302748       1.16549000       1.07821000      -0.23630000
2
Lattice="3.0391015823476537 0.0 0.0 0.0 3.0391015823476537 -0.160357130536732 0.0 0.0 3.0391015823476537" Properties=species:S:1:pos:R:3:force:R:3 energy=-3186.75722173 n_minim_iter=1 config_type=FLD_Ti_bcc Minim_Constant_Volume=F virial="3.1733335177368596 -0.1035400407641614 -0.16054387938769388 -0.1035400407641614 3.13000901660722 0.08478946731870317 -0.16054387938769388 0.08478946731870317 3.246003946994567" pbc="T T T"
Ti      -0.00827851      -0.11890181       0.17312353       0.84873000       1.01098000       0.78213000
Ti       1.64979149       1.54364175       1.71932738      -0.84873000      -1.01098000      -0.78213000
2
Lattice="3.0391015823476537 0.0 0.0 0.0 3.0391015823476537 0.24077689936460028 0.0 0.0 3.0391015823476537" Properties=species:S:1:pos:R:3:force:R:3 energy=-3186.36463122 n_minim_iter=1 config_type=FLD_Ti_bcc Minim_Constant_Volume=F virial="3.125708119371852 0.5586625314434005 -0.06629100154042877 0.5586625314434005 4.415794034513427 -0.07068685524251976 -0.06629100154042877 -0.07068685524251976 2.110076877237549" pbc="T T T"
Ti       0.07086273      -0.08034169       0.27175516      -1.41107000       0.18649000      -1.78883000
Ti       1.34978050       1.47611595       1.56207350       1.41107000      -0.18649000       1.78883000
2
Lattice="3.0391015823476537 0.0 0.0 0.0 3.0391015823476537 0.0 -0.23095739124097286 0.0 3.0391015823476537" Properties=species:S:1:pos:R:3:force:R:3 energy=-3186.51199633 n_minim_iter=1 config_type=FLD_Ti_bcc Minim_Constant_Volume=F virial="3.859766107030492 -0.11059292357015071 0.38860671211518505 -0.11059292357015071 2.9959150683089923 0.06671742965851452 0.38860671211518505 0.06671742965851452 3.292013683853829" pbc="T T T"
Ti      -0.09484842       0.18738796       0.14546052       0.89346000      -1.63636000      -1.36827000
Ti       1.43557824       1.45049936       1.45732823      -0.89346000       1.63636000       1.36827000
2
Lattice="3.0391015823476537 0.0 0.0 0.0 3.0391015823476537 0.0 0.20707576333223907 0.0 3.0391015823476537" Properties=species:S:1:pos:R:3:force:R:3 energy=-3186.87958178 n_minim_iter=1 config_type=FLD_Ti_bcc Minim_Constant_Volume=F virial="3.063941215322519 0.06727210156560551 -0.25001424500508856 0.06727210156560551 3.1390428454819013 0.07506869322996539 -0.25001424500508856 0.07506869322996539 3.2396215409379265" pbc="T T T"
Ti       0.14005497       0.10067328      -0.09382922      -0.61484000      -0.59604000      -0.01828000
Ti       1.67229205       1.52974394       1.41491756       0.61484000       0.59604000       0.01828000
2
Lattice="3.0391015823476537 0.0 0.0 0.0 3.0391015823476537 0.0 0.0 -0.0496073344431297 3.0391015823476537" Properties=species:S:1:pos:R:3:force:R:3 energy=-3186.72936955 n_minim_iter=1 config_type=FLD_Ti_bcc Minim_Constant_Volume=F virial="2.884093141760874 -0.0490718201164116 0.04985775131515139 -0.0490718201164116 3.4208583966244954 -0.07354185631578408 0.04985775131515139 -0.07354185631578408 3.5989700983380106" pbc="T T T"
Ti       0.16872788       0.08341128      -0.07783139      -1.40953000       0.78046000       0.29481000
Ti       1.46181698       1.68305258       1.48251934       1.40953000      -0.78046000      -0.29481000
2
Lattice="3.0391015823476537 0.0 0.0 0.0 3.0391015823476537 0.0 0.0 0.13186462992194273 3.0391015823476537" Properties=species:S:1:pos:R:3:force:R:3 energy=-3186.67479189 n_minim_iter=1 config_type=FLD_Ti_bcc Minim_Constant_Volume=F virial="3.613667502304457 -0.07228114278343198 -0.020937550519437027 -0.07228114278343198 3.3884587946680647 -0.12250400346509556 -0.020937550519437027 -0.12250400346509556 3.1558219334660533" pbc="T T T"
Ti      -0.04700275      -0.11723423      -0.19803090       0.91705000       1.03798000       1.24250000
Ti       1.59185102       1.62692298       1.52099133      -0.91705000      -1.03798000      -1.24250000
2
Lattice="3.0391015823476537 0.0 0.0 0.0 3.0391015823476537 0.0 0.0 0.0 2.8927661021540074" Properties=species:S:1:pos:R:3:force:R:3 energy=-3186.25032664 n_minim_iter=1 config_type=FLD_Ti_bcc Minim_Constant_Volume=F virial="4.723036467535247 -0.5178074025359048 0.5094440265838065 -0.5178074025359048 4.27188543148405 0.4454771745223607 0.5094440265838065 0.4454771745223607 4.6728969014009865" pbc="T T T"
Ti       0.15354149       0.11756764      -0.04065783      -1.34644000      -1.61219000       1.08688000
Ti       1.47353575       1.39081141       1.61753066       1.34644000       1.61219000      -1.08688000
2
Lattice="3.0391015823476537 0.0 0.0 0.0 3.0391015823476537 0.0 0.0 0.0 3.178330300331849" Properties=species:S:1:pos:R:3:force:R:3 energy=-3186.96584147 n_minim_iter=1 config_type=FLD_Ti_bcc Minim_Constant_Volume=F virial="1.957611405632483 -0.005677885540365038 -0.1287629889777423 -0.005677885540365038 2.195966251968844 0.0011759227273568948 -0.1287629889777423 0.0011759227273568948 2.0928388548262746" pbc="T T T"
Ti      -0.00977679       0.02286924      -0.16873438      -0.85422000       0.03622000       0.70623000
Ti       1.37021846       1.54768375       1.51956925       0.85422000      -0.03622000      -0.70623000
2
Lattice="2.8049362330350127 0.0 0.0 0.0 3.0391015823476537 0.0 0.0 0.0 3.0391015823476537" Properties=species:S:1:pos:R:3:force:R:3 energy=-3186.36807938 n_minim_iter=1 config_type=FLD_Ti_bcc Minim_Constant_Volume=F virial="4.1484594900199685 0.02858713006622234 0.021012900473804122 0.02858713006622234 5.933406685176908 -0.026768034320637075 0.021012900473804122 -0.026768034320637075 5.952514790283335" pbc="T T T"
Ti      -0.02922744       0.01487944       0.00566792       1.28567000      -0.30015000      -0.22828000
Ti       1.66588529       1.49783641       1.49757809      -1.28567000       0.30015000       0.22828000
2
Lattice="3.298115415296622 0.0 0.0 0.0 3.0391015823476537 0.0 0.0 0.0 3.0391015823476537" Properties=species:S:1:pos:R:3:force:R:3 energy=-3186.95971302 n_minim_iter=1 config_type=FLD_Ti_bcc Minim_Constant_Volume=F virial="1.2727153328090135 -0.011833941875471763 0.23360503945826802 -0.011833941875471763 1.493699110683151 -0.009333949880989288 0.23360503945826802 -0.009333949880989288 1.2188309894256173" pbc="T T T"
Ti      -0.01295830      -0.02826972      -0.00921152      -1.08808000       0.09203000      -0.89422000