8
Lattice="2.048 2.048 0.0 -6.144 6.144 4.096 2.048 -2.048 4.096" Properties=species:S:1:pos:R:3:force:R:3 virial="-9.714156617900032 1.6232067203450582 -0.12311611457297157 1.6232067203450582 -9.71417034312375 0.12315557459115954 -0.12311611457297157 0.12315557459115954 -7.723982022324573" config_type=TiAl_SQSS_fcc energy=-5332.13086296 pbc="T T T"
Al       0.00000000       0.00000000       0.00000000       0.18285000      -0.18285000      -0.24267000 
Al       0.00000000       2.04800000       2.04800000       0.00025000      -0.00025000      -0.00021000 
Al      -2.04800000       2.04800000       4.09600000      -0.18300000       0.18299000       0.24295000 
Al       0.00000000       0.00000000       4.09600000       0.00002000      -0.00001000      -0.00046000 
Al      -4.09600000       4.09600000       4.09600000      -0.00024000       0.00023000       0.00036000 
Ti      -2.04800000       4.09600000       6.14400000      -0.00007000       0.00007000      -0.00046000 
Ti       2.04800000       0.00000000       2.04800000      -0.17213000       0.17214000      -0.12521000 
Ti      -2.04800000       4.09600000       2.04800000       0.17231000      -0.17231000       0.12569000 
4
Lattice="4.16 0.0 0.0 0.3620515996924879 4.16 0.0 0.0 0.0 4.16" Properties=species:S:1:pos:R:3:force:R:3 virial="-2.0158000809147256 -0.2724462328989192 -0.6044476873586898 -0.2724462328989192 -2.3829664401160646 0.1114654688146103 -0.6044476873586898 0.1114654688146103 -1.9973647919837636" energy=-438.599747484 config_type=FLD_Al pbc="T T T"
Al      -0.06696397       0.16494816      -0.02092480       0.17585000      -0.70544000      -0.33343000 
Al       2.01489080       1.98712384       0.22547616       0.39673000       0.40605000      -0.79193000 
Al       2.22274508      -0.08289632       2.05232768      -0.38253000      -0.11793000       0.39008000 
Al       0.12113612       1.91908288       1.99521504      -0.19005000       0.41733000       0.73529000 
8
Lattice="4.142 0.0 0.0 0.0 8.284 0.0 0.0 0.0 4.142" Properties=species:S:1:pos:R:3:force:R:3 virial="-11.988597549263371 7.983482885584242e-06 1.6854019425122292e-05 7.983482885584242e-06 -9.91704961948755 -0.0 1.6854019425122292e-05 -0.0 -11.126951773119766" config_type=TiAl_SQSS_fcc energy=-9782.516701573 pbc="T T T"
Al       0.00000000       0.00000000       0.00000000      -0.00001000      -0.15192000       0.00000000 
Al       0.00000000       2.07100000       2.07100000      -0.00000000       0.15206000      -0.00000000 
Ti       0.00000000       4.14200000       0.00000000       0.00000000       0.22877000      -0.00000000 
Ti       0.00000000       6.21300000       2.07100000       0.00001000      -0.22884000      -0.00000000 
Ti       2.07100000       0.00000000       2.07100000      -0.00000000       0.07944000      -0.00000000 
Ti       2.07100000       2.07100000       0.00000000      -0.00001000      -0.07921000       0.00000000 
Ti       2.07100000       4.14200000       2.07100000       0.00001000      -0.35851000       0.00001000 
Ti       2.07100000       6.21300000       0.00000000       0.00000000       0.35821000      -0.00001000 
128
Lattice="13.728 0.0 0.0 0.0 13.728 0.0 0.0 0.0 13.728" Properties=species:S:1:pos:R:3:force:R:3 virial="-201.39715844073095 4.28142471040789 3.6873013595491484 4.28142471040789 -193.66259057235578 5.281211280364647 3.6873013595491484 5.281211280364647 -188.92260268640675" config_type=Ti_T4200 energy=-203898.676122 pbc="T T T"
Ti       1.01900198      -2.17160486      -0.32330813      -0.28988000       0.40365000       0.08368000 
Ti       2.73022464       0.33081734       4.25134195      -0.44109000      -0.29138000       1.26966000 
Ti      -0.07837315      -1.66305110       2.46656467      -0.14584000      -0.16808000       0.39261000 
Ti       0.41367955       4.40543875       3.03104630       1.02525000       0.03863000      -0.28202000 
Ti       2.46056554       3.43603603       4.77505142      -1.08686000       0.25337000       0.18768000 
Ti       1.58108122       2.21497162       8.40948451       0.80371000      -0.12462000       0.02529000 
Ti       0.88465978       3.01304890      10.91407574      -0.05582000      -0.15069000       0.16830000 
Ti      -1.44745286       0.12871373      14.34960384       0.00056000      -0.31948000      -0.31518000 
Ti      -2.44385856      -0.03931699       4.77315696       0.72090000       0.38147000       0.32073000 
Ti       2.90481734       2.20193002       2.75843568       0.73382000      -1.16264000      -1.48521000 
Ti       0.47691072       7.02442541       3.25482643      -1.24341000      -0.41447000      -1.27463000 
Ti      -1.44336192       6.62915510       6.43939296      -0.81426000      -1.20105000       1.37839000 
Ti       3.77694346       0.60467722       9.12150096      -0.45282000       0.78000000      -0.30247000 
Ti      -0.46215312       9.07393344       6.97670688      -1.33909000       1.15760000      -0.26196000 
Ti      -1.73876102       2.36161411      11.44728499      -0.05658000      -0.24669000       0.55622000 
Ti       1.16121034       7.76723376      12.29303962       0.14315000      -0.34097000      -0.35686000 
Ti       3.13252368       5.24323114      -0.83458003      -0.27358000       0.21045000      -0.14514000 
Ti       3.08085149       4.42900973       1.68147408      -0.87865000       0.64692000      -0.86619000 
Ti      -5.39467843       3.59843827       4.88939194       1.23065000       1.03929000       0.63106000 
Ti      -0.32502413      11.84499888       5.58343843      -1.09878000       0.96289000       0.63129000 
Ti      -1.84700630      10.33145942       3.40177094      -0.38637000       0.62382000       0.46458000 
Ti       5.13001632      12.36515280       8.80010102      -1.29000000      -1.88890000      -0.33409000 
Ti      -3.99712685       9.57182054      13.76960957       1.08174000      -0.22047000       0.52060000 
Ti       3.20421130       9.56764723      11.91041280      -0.24223000       0.02002000       0.15821000 
Ti       8.11916477       7.52700749       0.18278832       0.45320000      -1.43509000       1.53181000 
Ti       2.45956339      10.62864317       8.80500192       1.40119000       1.02538000       1.23293000 
Ti       0.87958042       7.19760413       6.22295731       1.73201000      -0.09785000      -0.73944000 
Ti      -2.11665168       7.80723715       4.21883405       0.48505000       0.21106000      -0.97037000 
Ti       6.14605306      13.89641510       2.43449606      -0.77946000       0.88280000       0.43865000 
Ti       0.46947014      13.18088429       8.84118893       1.52354000       1.47353000       0.44930000 
Ti       5.66105654       7.41781498      13.30439510      -1.02713000       0.30001000      -1.81896000 
Ti       4.62555350       9.56744131      18.40577482      -0.02355000      -0.74122000      -0.70432000 
Ti       5.50797562      -8.38183632       6.35971565       0.12753000      -0.46007000      -1.20878000 
Ti       7.99182384      -1.79934269       3.22860595       0.17837000      -0.00075000       1.21086000 
Ti       5.12382499      -4.21439990       1.17850762      -0.11703000      -0.37037000       1.05805000 
Ti       6.69822067      -1.44340310       5.83039142      -0.86893000       0.29283000      -0.20627000 
Ti       3.12463008      -0.98752368       6.84630461      -0.20802000       0.62337000      -0.50850000 
Ti       1.13692550       0.45483610      11.55402019       0.11423000      -0.23540000       0.12227000 
Ti       6.16459958      -3.39663667       9.79576541      -0.17132000      -0.06259000       0.57832000 
Ti       6.35458138      -0.26915117      13.60573843      -0.24053000      -0.42166000       0.13227000 
Ti       0.62281190       2.66275152       0.23866128       0.02185000       0.06034000       0.23217000 
Ti       1.97526701      -0.41240285       1.80519082       0.26758000       0.34797000      -0.84059000 
Ti       2.77738032       6.38568902       3.92771808       0.73805000      -0.00834000       0.62068000 
Ti       0.20852832       1.22567702       6.13276435      -0.13231000       0.03908000       0.25961000 
Ti       3.86213942       3.09507370       6.87285456       0.98032000      -0.41694000       0.84894000 
Ti       6.85496698       2.23014106       6.86298413      -0.26537000       0.21047000      -0.02224000 
Ti       3.34681776       1.19587354      13.74739766      -0.06868000       0.07408000      -0.34040000 
Ti       6.18763517       5.75140051       8.75560858      -0.83659000       0.33024000       1.07931000 
Ti       0.19596720       9.15782525       4.29645216       0.75052000      -0.13970000       0.02028000 
Ti       9.55596470      13.15106707      -0.82679626       0.33568000       0.02544000       0.33609000 
Ti       9.17919974       9.23967158      -3.65542320       1.13953000      -0.04883000       0.12688000 
Ti       7.37022000       9.89334403       5.05626950      -0.40767000      -0.70208000       0.07747000 
Ti       7.43485142       1.35301795      12.05049331       0.85566000       0.97039000       0.25045000 
Ti       2.54650282       4.81170518      10.15618032       1.20749000      -0.36415000      -0.71166000 
Ti       2.27985014       5.38942061       7.28866195       0.60521000      -0.32538000       0.49352000 
Ti       3.87065078       7.73472586       7.44687715      -0.17262000      -0.99185000      -0.63663000 
Ti       3.15436493      12.11472662      -2.53273363       0.41674000       0.47358000       0.07728000 
Ti      10.34695834      12.97191667       2.45414083       0.27789000       0.12671000      -0.52107000 
Ti       2.46401126       7.88425123       0.79188595       0.84816000      -0.60653000       0.03789000 
Ti       4.32795792      11.93263843       3.77039520      -0.05241000      -0.01198000      -0.07391000 
Ti       1.61465990      11.20358554       4.86038467       1.26394000       0.85904000      -1.02216000 
Ti       5.40810442       9.64785994       7.29645946       1.90193000       1.41788000       0.39957000 
Ti       0.64061712      11.28636538      10.93056307      -0.19364000       0.06074000       0.35418000 
Ti       3.63826320      11.24778970      13.97283888      -0.31443000       0.90636000       0.39041000 
Ti       6.82582243       4.82039501      -2.05527379      -0.62151000      -0.16234000      -0.21985000 
Ti       4.65015408       4.25539171       3.65070077       0.73454000       0.84641000       0.88095000 
Ti      10.52998003       2.30793763       2.58852422       0.15809000       0.28131000       0.43559000 
Ti      11.90218973      -0.39595670       7.73243328      -0.91999000      -0.15290000      -1.70112000 
Ti       5.32671110      -0.03112138      11.13316090       0.39335000       0.17270000       0.18032000 
Ti       7.12614989      -0.34753805       8.29923494       1.51546000       0.72029000       1.00410000 
Ti       8.21762198      -3.37397174       7.89984624      -0.12548000       0.80508000      -0.86411000 
Ti       9.24200534       1.23147024      10.04551891       0.13327000      -0.24035000      -0.65835000 
Ti      13.15271443       5.01538752      -2.12929517       0.39801000      -0.66023000       0.16565000 
Ti       8.53071648       3.57806592       0.56244989      -0.13116000       1.20171000       0.02900000 
Ti       1.45849018       8.46520646       8.52253459       0.22204000      -0.71036000       0.36935000 
Ti       5.80828934       7.71594595       3.31218202      -0.09037000      -0.50482000      -0.56177000 
Ti       8.83171661       5.13068899       9.09309773      -1.23496000      -0.37565000      -0.11068000 
Ti       8.87762304       6.26692810       2.18607418       0.50662000      -0.96232000       0.45984000 
Ti       9.41135395       3.77658653      11.55687562      -0.65577000      -0.93980000      -0.52732000 
Ti      13.55925542       4.19364317       8.17851091      -0.00433000       0.85410000       0.51314000 
Ti       6.90970051       7.91124048      -3.54749366      -1.36867000      -0.42783000      -1.10236000 
Ti      11.54635997      10.92327350       1.09096416      -0.15880000       0.71475000      -1.24603000 
Ti       3.67057891       2.51834669      -2.64242035      -0.08405000      -0.33143000       0.30341000 
Ti       5.76625421       5.68594541       1.39810070       0.15311000      -0.13912000       0.45093000 
Ti       3.42022138       7.50992986       9.99935165       0.13153000       0.15424000       0.99320000 
Ti      11.24262797       9.88167523       9.07089955      -0.34450000      -0.21193000      -0.36644000 
Ti      10.19220259       4.80635126       6.74576074       0.28584000       0.56138000      -0.43881000 
Ti       7.89354509       9.05987597      12.26546006      -1.59322000       1.64270000      -0.65388000 
Ti       0.07960867       9.37788509       1.22467488      -0.40348000      -1.21246000      -0.13113000 
Ti      11.09057664      16.31473958       0.07900464      -0.21724000      -0.09088000      -0.38113000 
Ti       2.37694829       9.71161277       2.42458445       0.71025000       0.86890000       0.99750000 
Ti       8.56731533      14.77308518       1.17068266      -0.35519000      -0.39676000       0.06418000 
Ti       9.70119322       9.37600435       4.74986054      -0.85720000      -0.60997000       0.90823000 
Ti       7.41847392       7.75759670       7.30052294      -0.75656000      -0.37075000      -0.18396000 
Ti       7.99857802      12.03034061      10.85611613      -0.09966000       0.53424000       0.10103000 
Ti       5.74165363      10.91006717      12.40319309      -0.22693000      -0.08902000      -0.21615000 
Ti       5.54342131       3.11603635       0.82020682      -0.47694000      -0.97258000      -0.51736000 
Ti      11.65910803      -0.33946598      -3.02552765       0.83087000      -0.12427000       0.18558000 
Ti      10.79156707       5.43428371       4.26802147      -0.22380000      -0.73263000      -0.26231000 
Ti       6.42280954       3.15608093       9.17333789      -0.06924000      -0.58183000       0.75995000 
Ti       6.88636291       3.33615110       2.94118282       0.92012000      -0.27708000      -0.80429000 
Ti       7.81283818       6.36307901       4.53218938       0.30344000       0.12484000       0.35928000 
Ti      11.35727050       2.48828237       5.32798781       0.12526000       0.86485000       0.15155000 
Ti      13.81364899       2.02216186      17.13461693      -0.56878000      -1.08951000      -0.00350000 
Ti       8.64633370       6.69977194      -2.47933171       1.53594000      -0.57845000       0.50204000 
Ti      14.00216189       6.12632592       0.26430518       0.10788000      -0.13744000       1.03311000 
Ti      10.96193155       5.62390858      -1.29930029      -0.85385000       0.13346000       1.19889000 
Ti      13.96780070       4.54672733       5.61284381      -0.32563000      -0.46137000      -0.44507000 
Ti       5.46756038       1.62731712       4.75459670      -0.47759000      -0.25516000      -0.10807000 
Ti      11.10136685       4.09307184       9.36263328       0.32243000       0.23788000       0.55992000 
Ti      12.61589472       1.87590374       8.92007002      -0.00646000      -0.72827000      -0.24496000 
Ti      12.17224694       5.00586029      15.55790122      -1.11342000      -0.07762000      -0.61799000 
Ti       7.50410918      10.74338179       0.85937280      -0.18033000       0.91988000      -0.82044000 
Ti      11.39255146       7.42073904       1.23497088       0.06988000       1.00161000       0.03597000 
Ti       8.35712592       8.88448704       2.63762928       0.12450000      -0.07195000      -0.33485000 
Ti       9.90719558       7.52179085       7.65337373       0.47799000       0.67316000      -0.00210000 
Ti      12.09320112       6.60205603       9.79635571      -2.02481000       1.02398000      -0.62120000 
Ti      13.28904720       8.90826394      10.53245107       0.62839000       0.42203000      -0.41233000 
Ti      14.47569552       6.35677786       9.89781936       0.68711000       0.00780000      -0.71574000 
Ti      11.32735718      11.16765936      12.08216381       0.29634000      -0.47047000      -0.83927000 
Ti      16.84340486      10.06963901       6.50166317      -1.66455000      -0.72845000      -0.35674000 
Ti       9.51180173      16.34042467       7.44351379      -0.33878000      -0.88840000       0.86579000 
Ti       8.29448506      15.02337408       4.22805926       0.40609000      -1.25844000      -1.17075000 
Ti       8.90938963      13.86835507       6.39296486       0.44435000      -0.60913000       0.84462000 
Ti      10.61127725      11.21860397       5.98803005       0.18124000       0.75187000       0.71794000 
Ti      13.36643194      11.07189283       8.58182582      -0.51609000      -0.00531000      -0.38677000 
Ti      11.64963571       8.29117661      12.30472214       0.03660000      -0.11453000       0.03935000 
Ti       9.95735770      12.33732614       8.94742992      -1.14173000      -0.02655000      -0.28202000 
8
Lattice="2.048 4.096 2.048 -4.096 0.0 4.096 0.0 -4.096 4.096" Properties=species:S:1:pos:R:3:force:R:3 virial="-10.193970709056742 1.229526986280844 0.9566927000908275 1.229526986280844 -6.818764915959961 1.3556068913503254 0.9566927000908275 1.3556068913503254 -8.064181422173325" config_type=TiAl_SQSS_fcc energy=-5331.577793292 pbc="T T T"
Al       0.00000000       0.00000000       0.00000000       0.27177000      -0.07176000      -0.11644000 
Al       0.00000000       2.04800000       2.04800000      -0.16344000      -0.03337000      -0.15677000 
Al      -2.04800000       0.00000000       2.04800000      -0.36577000      -0.10755000      -0.10769000 
Al       0.00000000      -2.04800000       2.04800000       0.32835000      -0.08913000      -0.02956000 
Al       0.00000000       0.00000000       4.09600000       0.05420000       0.02735000       0.13288000 
Ti      -2.04800000       2.04800000       4.09600000      -0.15655000      -0.41266000      -0.10750000 
Ti      -2.04800000      -2.04800000       4.09600000      -0.32737000       0.57559000       0.61990000 
Ti      -2.04800000       0.00000000       6.14400000       0.35880000       0.11154000      -0.23482000 
4
Lattice="4.0 0.0 0.0 0.0 4.0 0.04407652198699849 0.0 0.0 4.0" Properties=species:S:1:pos:R:3:force:R:3 virial="0.5417713807149318 -0.3813480187314938 -0.41402995861266273 -0.3813480187314938 0.17473269573751096 -0.23651065374477337 -0.41402995861266273 -0.23651065374477337 0.3122779807822795" energy=-438.956943859 config_type=FLD_Al pbc="T T T"
Al      -0.17186400       0.12242800       0.10977305       0.98618000      -0.22288000      -0.75398000 
Al       2.02070000       1.97810800      -0.09274697      -0.43445000       0.58620000       0.16256000 
Al       2.02766400       0.09220000       1.93117996      -0.51231000      -0.07721000       0.43452000 
Al       0.06025600       2.18336000       1.99674673      -0.03942000      -0.28612000       0.15690000 
8
Lattice="2.063 4.126 2.063 -4.126 0.0 4.126 2.063 -4.126 2.063" Properties=species:S:1:pos:R:3:force:R:3 virial="-9.328748674253596 -6.926827424224019e-05 0.5895291298717362 -6.926827424224019e-05 -11.293130293930082 -6.839146064423715e-05 0.5895291298717362 -6.839146064423715e-05 -9.32871272489608" config_type=TiAl_SQSS_fcc energy=-8298.731258787 pbc="T T T"
Al       0.00000000       0.00000000       0.00000000       0.01015000       0.00001000      -0.01016000 
Al       0.00000000       2.06300000       2.06300000      -0.28049000       0.00000000       0.28050000 
Al       2.06300000       0.00000000       2.06300000       0.01015000       0.00001000      -0.01015000 
Ti      -2.06300000       0.00000000       2.06300000      -0.15691000       0.00001000       0.15692000 
Ti      -2.06300000       2.06300000       4.12600000       0.67182000      -0.00001000      -0.67186000 
Ti       0.00000000      -2.06300000       2.06300000      -0.13271000      -0.00000000       0.13272000 
Ti       0.00000000       0.00000000       4.12600000      -0.15678000      -0.00001000       0.15678000 
Ti      -2.06300000      -2.06300000       4.12600000       0.03476000      -0.00000000      -0.03476000 
8
Lattice="2.0555 2.0555 0.0 -6.166499999999999 6.166499999999999 4.111 2.0555 -2.0555 4.111" Properties=species:S:1:pos:R:3:force:R:3 virial="-9.033541527101029 -0.06032403604817606 -0.2942343777682145 -0.06032403604817606 -9.033538057959426 0.2942612636156373 -0.2942343777682145 0.2942612636156373 -10.146031927330613" config_type=TiAl_SQSS_fcc energy=-6815.536970082 pbc="T T T"
Al       0.00000000       0.00000000       0.00000000      -0.04357000       0.04358000      -0.32946000 
Al       0.00000000       2.05550000       2.05550000      -0.00028000       0.00028000       0.00082000 
Al      -2.05550000       2.05550000       4.11100000       0.04295000      -0.04296000       0.33048000 
Al      -4.11100000       4.11100000       4.11100000       0.00010000      -0.00009000       0.00038000 
Ti      -2.05550000       4.11100000       6.16650000      -0.00205000       0.00205000       0.00093000 
Ti       2.05550000       0.00000000       2.05550000       0.27716000      -0.27716000       0.34840000 
Ti       0.00000000      -0.00000000       4.11100000       0.00225000      -0.00224000      -0.00335000 
Ti      -2.05550000       4.11100000       2.05550000      -0.27656000       0.27655000      -0.34820000 
8
Lattice="2.0555 2.0555 0.0 -6.166499999999999 6.166499999999999 4.111 2.0555 -2.0555 4.111" Properties=species:S:1:pos:R:3:force:R:3 virial="-7.978959773078571 0.8135900270054113 1.3080519833852893 0.8135900270054113 -7.9789432946559575 -1.3080745328057086 1.3080519833852893 -1.3080745328057086 -9.092096300931704" config_type=TiAl_SQSS_fcc energy=-6814.905643759 pbc="T T T"
Al       0.00000000       0.00000000       0.00000000      -0.13921000       0.13920000      -0.22320000 
Al       0.00000000       2.05550000       2.05550000      -0.26378000       0.26377000      -0.10540000 
Al       2.05550000       0.00000000       2.05550000       0.13906000      -0.13905000       0.22345000 
Al      -4.11100000       4.11100000       4.11100000       0.26342000      -0.26341000       0.10590000 
Ti      -2.05550000       2.05550000       4.11100000       0.14854000      -0.14855000      -0.25201000 
Ti      -2.05550000       4.11100000       6.16650000       0.01932000      -0.01932000      -0.53731000 
Ti       0.00000000      -0.00000000       4.11100000      -0.01956000       0.01956000       0.53697000 
Ti      -2.05550000       4.11100000       2.05550000      -0.14779000       0.14780000       0.25160000 
2
Lattice="2.744434780956316 -8.728010290631048e-16 0.11303009831927249 -1.3722173904781572 2.37675023933775 2.3708369008001907e-25 2.1905642829302287e-40 4.347319353472243e-25 4.347020259615542" Properties=species:S:1:pos:R:3:force:R:3 virial="2.611591325947117 -0.1893275579696334 -0.24817890442554413 -0.1893275579696334 3.7062565269707743 -0.12542545437312666 -0.24817890442554413 -0.12542545437312666 3.546969284632449" energy=-3187.05165139 config_type=FLD_Ti_hcp n_minim_iter=1 pbc="T T T"
Ti       0.01586146       0.13847185       0.01639140      -0.11226000      -0.07391000      -0.13674000 
Ti      -0.15685817       1.45981901       2.19375468       0.11226000       0.07391000       0.13674000 
54
Lattice="9.899999999999999 0.0 0.0 0.0 9.899999999999999 0.0 0.0 0.0 9.899999999999999" Properties=species:S:1:pos:R:3:force:R:3 virial="-40.90887999584766 1.4785375375326395 3.816149236809531 1.4785375375326395 -28.713081611083233 1.5612945548481174 3.816149236809531 1.5612945548481174 -41.22683288030284" config_type=Ti_T4200 energy=-86028.9174557 pbc="T T T"
Ti       1.51596720      -0.05049990      -0.59430690       0.43651000       0.61570000       0.10131000 
Ti       3.28170150       0.29007990       1.53953910      -0.10356000       1.01683000       0.50311000 
Ti       3.53855700      -1.68070320       3.03582510       0.49918000      -0.48281000       1.21748000 
Ti      -1.38285180      -2.60465040       1.49874120       0.30775000      -1.29383000      -1.19384000 
Ti      -5.13427860       2.72698470       6.65058240      -0.19879000       0.34974000      -0.74951000 
Ti       0.95638950      -1.42980750       6.86639250      -1.58420000       1.86333000       0.42279000 
Ti      -2.06414010       5.41134000       2.62292580      -0.70454000      -0.51743000       0.16560000 
Ti      -1.08808920      -0.26306280       0.98651520      -0.30327000       2.07367000      -2.01946000 
Ti       0.75636990       1.94668650       1.63743030      -0.00204000       0.11525000       0.65868000 
Ti       0.95203350       5.99895450       7.34841360      -0.52417000      -0.36139000      -0.66194000 
Ti      -0.41216670       1.85303250       5.09369850      -0.50880000       1.65369000       0.58460000 
Ti       3.08678040       7.81234740      10.37661570      -0.69485000      -0.83613000      -0.45889000 
Ti       0.96632910       5.39703450       0.04336200      -0.06285000      -1.19472000       0.30318000 
Ti       0.94754880       8.71115850       2.39276070      -0.14421000      -0.41172000      -1.07492000 
Ti       0.18763470       7.72127730      -0.45608310       0.72930000      -0.03809000       0.41684000 
Ti       1.21012650       6.13599030       2.47248540       0.42386000       1.07080000       0.55503000 
Ti      -1.90802700       8.84347200       8.30029860       0.97486000       0.30581000       1.64796000 
Ti       3.47020740       8.18703270       7.35780870      -0.09476000      -0.30160000       0.93518000 
Ti       4.95911790       0.51908670       4.37423580      -0.01273000      -1.27852000      -0.31693000 
Ti       5.87176920       0.39698010      -0.61376040      -0.39175000      -0.54310000       0.26082000 
Ti       2.49213690       2.79648270       3.82727070      -0.47134000      -0.39390000      -0.04215000 
Ti       1.20519630       3.50736210       6.65282970       0.89300000      -0.08991000      -0.43672000 
Ti       6.87874770       1.52787690       5.66253270       0.37790000       0.18184000       0.32507000 
Ti       4.93851600       5.28918390       7.35131430       1.74273000      -0.41916000       0.55772000 
Ti       4.31132130       2.35480410       0.79129710       0.01662000       0.55967000      -0.24725000 
Ti       6.41769480       4.22631990       5.10537060       0.43976000       0.65421000      -0.65144000 
Ti       1.03242150       0.24012450       4.35726720       0.49620000      -1.36632000      -1.25317000 
Ti       0.00108900       4.84010010       4.14070470       0.60191000      -2.53105000       1.55691000 
Ti       3.39794730       5.47903620       8.93808630      -0.40894000      -0.92364000       0.67462000 
Ti       8.85928230       3.38406750      10.02566070       0.93906000       0.25640000       0.05869000 
Ti       5.95563210       4.49181810       0.40804830       0.33144000       0.20247000      -0.11988000 
Ti       4.95036630       5.79608370       2.98582020      -0.17099000      -0.27351000      -0.63690000 
Ti       3.01274820       4.31508330       1.72430280      -0.42380000       0.22574000      -0.37099000 
Ti       5.79257910       8.79020010       7.10865540      -0.65755000       1.12028000      -1.56943000 
Ti       2.65737780      10.88757450       5.76323550       0.08141000       0.33062000       2.11557000 
Ti       5.66145360       8.28087480      11.09577150       0.18586000      -1.06733000      -0.15781000 
Ti       7.42081230       2.40391800      -1.29356370      -2.39325000      -0.19921000      -0.39067000 
Ti       8.36345070       4.01961780      -3.09632400       1.04024000      -0.96176000      -1.11790000 
Ti       6.89595390      -2.15240850       3.38694840      -0.97647000       0.40305000       2.12061000 
Ti       9.43229430      -2.68228620       4.66000920       0.69047000       1.07110000      -1.12267000 
Ti       8.13642390       0.15668730       3.20552100       1.08502000       0.28883000       2.58012000 
Ti       3.87655290       1.16319060       8.27976600      -1.13384000      -1.58451000      -0.60363000 
Ti       5.32711080       2.96893080       3.38344380      -0.70225000       0.20059000      -0.25013000 
Ti       6.35459220      10.57208130       1.79393940      -0.57217000       1.82748000       0.16084000 
Ti       7.98382530       2.91366900       2.68471170       0.00609000      -0.63986000       0.44401000 
Ti       7.57654920       6.48948960       6.16915530      -0.03168000      -0.04988000       0.69487000 
Ti       5.06763180       6.68970720       5.53289220      -0.22211000       1.87138000      -1.57653000 
Ti      11.99343420       7.32125790       5.23601100       0.48251000       0.35227000      -1.66787000 
Ti      11.74418190       2.57423760      -0.81306720       0.53700000       1.07207000       0.80947000 
Ti       8.19094320       5.58871830      -1.21453200       0.32154000       0.49700000       1.40313000 
Ti       3.17848410       5.02123050       5.31817110       0.01455000      -1.11951000      -0.79471000 
Ti       8.07765750       9.20796030       5.99417280       0.75313000       0.39196000      -2.43472000 
Ti       6.20702280       7.03187100       8.70381270      -1.02959000      -0.89173000       0.97211000 
Ti       9.64760940      11.33240130       7.94727450       0.11663000      -0.80118000      -0.32627000 
6
Lattice="2.0655 2.0655 0.0 -6.1965 6.1965 0.0 0.0 0.0 4.131" Properties=species:S:1:pos:R:3:force:R:3 virial="-6.752029231995861 2.1595648623501926 -1.980011481200489e-06 2.1595648623501926 -6.752014051907839 7.920045924801956e-06 -1.980011481200489e-06 7.920045924801956e-06 -6.903134468187504" config_type=TiAl_SQSS_fcc energy=-6594.451730367 pbc="T T T"
Al       0.00000000       0.00000000       0.00000000       0.16554000      -0.16555000      -0.00000000 